       N       E                     dE             d eps       ncg     rms          ort
DAV:   1     0.112835671498E+05    0.11284E+05   -0.60489E+05   720   0.157E+03
DAV:   2    -0.733387424832E+03   -0.12017E+05   -0.11514E+05   720   0.445E+02
DAV:   3    -0.204630984154E+04   -0.13129E+04   -0.12816E+04   720   0.159E+02
DAV:   4    -0.212207092354E+04   -0.75761E+02   -0.74532E+02   720   0.401E+01
DAV:   5    -0.212917417518E+04   -0.71033E+01   -0.70362E+01   720   0.811E+00
SDA:   6    -0.147569436165E+04    0.65348E+03   -0.70362E+01   720   0.175E+04 0.000E+00
CGA:   7    -0.168649182453E+04   -0.21080E+03   -0.22901E+03   720   0.321E+03 0.345E+02
CGA:   8    -0.171231301994E+04   -0.25821E+02   -0.35346E+02   720   0.308E+03 0.428E+02
CGA:   9    -0.171383620592E+04   -0.15232E+01   -0.24726E+02   720   0.369E+03-0.651E+02
CGA:  10    -0.171912267022E+04   -0.52865E+01   -0.12535E+02   720   0.309E+03-0.111E+03
CGA:  11    -0.171716923879E+04    0.19534E+01   -0.11400E+02   720   0.323E+03-0.106E+03
CGA:  12    -0.172285508169E+04   -0.56858E+01   -0.97306E+01   720   0.168E+03-0.106E+03
CGA:  13    -0.172761756185E+04   -0.47625E+01   -0.93661E+01   720   0.104E+03-0.159E+01
CGA:  14    -0.172892719350E+04   -0.13096E+01   -0.74666E+01   720   0.106E+03-0.193E+02
CGA:  15    -0.173073011801E+04   -0.18029E+01   -0.46516E+01   720   0.241E+03-0.900E+02
CGA:  16    -0.173495647625E+04   -0.42264E+01   -0.18288E+02   720   0.754E+02-0.233E+02
CGA:  17    -0.173438613186E+04    0.57034E+00   -0.51581E+01   720   0.145E+03 0.897E+00
CGA:  18    -0.173111789101E+04    0.32682E+01   -0.87209E+01   720   0.145E+03-0.172E+02
CGA:  19    -0.173557304843E+04   -0.44552E+01   -0.81998E+01   720   0.625E+02-0.440E+02
CGA:  20    -0.173870672741E+04   -0.31337E+01   -0.22752E+01   720   0.406E+02-0.159E+01
CGA:  21    -0.173773640665E+04    0.97032E+00   -0.13781E+01   720   0.127E+03-0.943E+02
CGA:  22    -0.173919413269E+04   -0.14577E+01   -0.76272E+01   720   0.202E+02-0.167E+02
CGA:  23    -0.173999911468E+04   -0.80498E+00   -0.41196E+00   720   0.140E+02 0.170E+02
CGA:  24    -0.174053958759E+04   -0.54047E+00   -0.24749E+00   720   0.126E+02 0.174E+02
CGA:  25    -0.174099394662E+04   -0.45436E+00   -0.21833E+00   720   0.597E+01 0.114E+02
CGA:  26    -0.174115222654E+04   -0.15828E+00   -0.11159E+00   720   0.155E+01 0.201E+01
CGA:  27    -0.174124118168E+04   -0.88955E-01   -0.78288E-01   720   0.346E+01 0.237E+00
CGA:  28    -0.174138893720E+04   -0.14776E+00   -0.13391E+00   720   0.727E+01 0.394E+00
CGA:  29    -0.174152107496E+04   -0.13214E+00   -0.10542E+00   720   0.437E+01 0.234E+01
CGA:  30    -0.174158912612E+04   -0.68051E-01   -0.78826E-01   720   0.135E+01-0.581E+00
CGA:  31    -0.174160888047E+04   -0.19754E-01   -0.21394E-01   720   0.104E+01-0.200E-01
CGA:  32    -0.174162883203E+04   -0.19952E-01   -0.20388E-01   720   0.914E+00 0.508E-01
CGA:  33    -0.174164734845E+04   -0.18516E-01   -0.16039E-01   720   0.764E+00 0.191E+00
CGA:  34    -0.174166666923E+04   -0.19321E-01   -0.18483E-01   720   0.104E+01 0.652E-01
CGA:  35    -0.174169481445E+04   -0.28145E-01   -0.32507E-01   720   0.178E+01-0.881E-01
CGA:  36    -0.174171650364E+04   -0.21689E-01   -0.26210E-01   720   0.142E+01-0.221E+00
CGA:  37    -0.174173213440E+04   -0.15631E-01   -0.19802E-01   720   0.973E+00-0.173E+00
CGA:  38    -0.174174104184E+04   -0.89074E-02   -0.11198E-01   720   0.492E+00-0.989E-01
CGA:  39    -0.174174622535E+04   -0.51835E-02   -0.65283E-02   720   0.325E+00-0.497E-01
CGA:  40    -0.174175155184E+04   -0.53265E-02   -0.53451E-02   720   0.396E+00 0.518E-02
CGA:  41    -0.174176221793E+04   -0.10666E-01   -0.10255E-01   720   0.643E+00 0.694E-02
CGA:  42    -0.174177424874E+04   -0.12031E-01   -0.10371E-01   720   0.635E+00 0.712E-01
CGA:  43    -0.174178712515E+04   -0.12876E-01   -0.13811E-01   720   0.717E+00-0.582E-01
CGA:  44    -0.174179787985E+04   -0.10755E-01   -0.11222E-01   720   0.600E+00-0.462E-01
CGA:  45    -0.174180545167E+04   -0.75718E-02   -0.83536E-02   720   0.263E+00-0.659E-01
CGA:  46    -0.174180863689E+04   -0.31852E-02   -0.31082E-02   720   0.114E+00-0.129E-01
CGA:  47    -0.174181077294E+04   -0.21361E-02   -0.19898E-02   720   0.107E+00-0.644E-02
CGA:  48    -0.174181396314E+04   -0.31902E-02   -0.30354E-02   720   0.171E+00-0.103E-01
CGA:  49    -0.174181761922E+04   -0.36561E-02   -0.32761E-02   720   0.174E+00-0.682E-02
CGA:  50    -0.174182126341E+04   -0.36442E-02   -0.34414E-02   720   0.171E+00-0.947E-02
CGA:  51    -0.174182466453E+04   -0.34011E-02   -0.31525E-02   720   0.138E+00-0.753E-02
CGA:  52    -0.174182701093E+04   -0.23464E-02   -0.21832E-02   720   0.810E-01-0.821E-02
CGA:  53    -0.174182845306E+04   -0.14421E-02   -0.13293E-02   720   0.568E-01-0.642E-02
CGA:  54    -0.174182970497E+04   -0.12519E-02   -0.11698E-02   720   0.611E-01-0.505E-02
CGA:  55    -0.174183109202E+04   -0.13871E-02   -0.13382E-02   720   0.753E-01-0.301E-02
SDA:  56    -0.174183279475E+04   -0.17027E-02   -0.16951E-02   720   0.909E-01 0.975E-03
CGA:  57    -0.174183556898E+04   -0.27742E-02   -0.28050E-02   720   0.198E-01 0.452E-02
CGA:  58    -0.174183701917E+04   -0.14502E-02   -0.13399E-02   720   0.155E-01 0.418E-02
CGA:  59    -0.174183853946E+04   -0.15203E-02   -0.13481E-02   720   0.155E-01 0.525E-02
CGA:  60    -0.174183987141E+04   -0.13319E-02   -0.11984E-02   720   0.614E-02 0.794E-02
CGA:  61    -0.174184021635E+04   -0.34495E-03   -0.33263E-03   720   0.488E-02 0.985E-03
CGA:  62    -0.174184066754E+04   -0.45118E-03   -0.38924E-03   720   0.469E-02 0.235E-02
CGA:  63    -0.174184129749E+04   -0.62995E-03   -0.52243E-03   720   0.425E-02 0.343E-02
CGA:  64    -0.174184153344E+04   -0.23595E-03   -0.23568E-03   720   0.308E-02 0.208E-04
CGA:  65    -0.174184183739E+04   -0.30395E-03   -0.25597E-03   720   0.262E-02 0.131E-02
CGA:  66    -0.174184236115E+04   -0.52376E-03   -0.41897E-03   720   0.494E-02 0.165E-02
CGA:  67    -0.174184252771E+04   -0.16655E-03   -0.17006E-03   720   0.132E-02 0.231E-03
CGA:  68    -0.174184273712E+04   -0.20942E-03   -0.23389E-03   720   0.660E-02-0.203E-03
CGA:  69    -0.174184310153E+04   -0.36441E-03   -0.37048E-03   720   0.972E-02-0.161E-03
CGA:  70    -0.174184351322E+04   -0.41168E-03   -0.39662E-03   720   0.130E-01 0.852E-03
CGA:  71    -0.174184388709E+04   -0.37388E-03   -0.35851E-03   720   0.998E-02 0.246E-02
CGA:  72    -0.174184412174E+04   -0.23465E-03   -0.25512E-03   720   0.425E-02 0.754E-03
CGA:  73    -0.174184422123E+04   -0.99483E-04   -0.10477E-03   720   0.164E-02 0.876E-04
CGA:  74    -0.174184425962E+04   -0.38391E-04   -0.39923E-04   720   0.996E-03 0.464E-04
CGA:  75    -0.174184429507E+04   -0.35453E-04   -0.38010E-04   720   0.152E-02 0.202E-03
CGA:  76    -0.174184436804E+04   -0.72967E-04   -0.76519E-04   720   0.192E-02 0.506E-03
CGA:  77    -0.174184445661E+04   -0.88567E-04   -0.94976E-04   720   0.157E-02 0.554E-03
CGA:  78    -0.174184452418E+04   -0.67572E-04   -0.70712E-04   720   0.129E-02 0.226E-03
CGA:  79    -0.174184465004E+04   -0.12587E-03   -0.20781E-03   720   0.107E-01-0.884E-03
CGA:  80    -0.174184493962E+04   -0.28958E-03   -0.27179E-03   720   0.155E-02-0.594E-03
CGA:  81    -0.174184502946E+04   -0.89838E-04   -0.14547E-03   720   0.503E-02-0.115E-02
CGA:  82    -0.174184515420E+04   -0.12475E-03   -0.12475E-03   720   0.647E-03 0.138E-06
CGA:  83    -0.174184518562E+04   -0.31419E-04   -0.31474E-04   720   0.426E-03 0.156E-04
CGA:  84    -0.174184523488E+04   -0.49260E-04    0.12171E-03   720   0.298E-03 0.316E-03
CGA:  85    -0.174184503598E+04    0.19891E-03   -0.10944E-03   720   0.115E-01-0.106E-02
CGA:  86    -0.174184533487E+04   -0.29889E-03   -0.32239E-03   720   0.138E-02 0.935E-04
CGA:  87    -0.174184536701E+04   -0.32141E-04   -0.37332E-04   720   0.106E-03 0.777E-04
CGA:  88    -0.174184537437E+04   -0.73565E-05   -0.81594E-05   720   0.137E-03 0.536E-04
CGA:  89    -0.174184538552E+04   -0.11155E-04   -0.10806E-04   720   0.343E-03-0.455E-04
CGA:  90    -0.174184541438E+04   -0.28855E-04   -0.40536E-04   720   0.192E-02-0.124E-03
CGA:  91    -0.174184548359E+04   -0.69214E-04   -0.73960E-04   720   0.178E-02 0.102E-03
CGA:  92    -0.174184553142E+04   -0.47832E-04   -0.55018E-04   720   0.322E-03 0.163E-03
CGA:  93    -0.174184554368E+04   -0.12259E-04   -0.12164E-04   720   0.101E-03 0.833E-06
CGA:  94    -0.174184554765E+04   -0.39697E-05   -0.19917E-04   720   0.959E-03-0.146E-03
CGA:  95    -0.174184558470E+04   -0.37049E-04   -0.33037E-04   720   0.243E-03-0.793E-04
CGA:  96    -0.174184559549E+04   -0.10792E-04   -0.94715E-05   720   0.947E-04-0.306E-04
CGA:  97    -0.174184560328E+04   -0.77891E-05   -0.81629E-05   720   0.181E-03-0.265E-04
CGA:  98    -0.174184547827E+04    0.12501E-03   -0.68599E-04   720   0.663E-02-0.433E-03
CGA:  99    -0.174184561502E+04   -0.13675E-03   -0.16537E-03   720   0.642E-03-0.799E-04
CGA: 100    -0.174184564572E+04   -0.30695E-04   -0.27331E-04   720   0.164E-03-0.428E-04
CGA: 101    -0.174184565588E+04   -0.10168E-04   -0.84307E-05   720   0.159E-03-0.193E-04
CGA: 102    -0.174184566151E+04   -0.56248E-05   -0.89491E-05   720   0.701E-04 0.442E-04
   1 F= -.17418457E+04 E0= -.17418170E+04  d E =-.174185E+04  mag=    46.0000
       N       E                     dE             d eps       ncg     rms          ort
SDA:   1    -0.174185416633E+04   -0.85105E-02    0.00000E+00   720   0.158E+00 0.000E+00
CGA:   2    -0.174185745332E+04   -0.32870E-02   -0.34871E-02   720   0.504E-02-0.461E-02
CGA:   3    -0.174185765155E+04   -0.19823E-03   -0.21464E-03   720   0.334E-02 0.176E-03
CGA:   4    -0.174185793355E+04   -0.28201E-03   -0.29027E-03   720   0.273E-02 0.215E-03
CGA:   5    -0.174185807004E+04   -0.13649E-03   -0.15682E-03   720   0.805E-03 0.311E-03
CGA:   6    -0.174185814042E+04   -0.70376E-04   -0.62632E-04   720   0.893E-03-0.168E-03
CGA:   7    -0.174185818404E+04   -0.43623E-04   -0.46498E-04   720   0.488E-03 0.573E-04
CGA:   8    -0.174185819931E+04   -0.15264E-04   -0.20706E-04   720   0.156E-03 0.766E-04
CGA:   9    -0.174185821248E+04   -0.13175E-04   -0.11772E-04   720   0.128E-03-0.318E-04
CGA:  10    -0.174185822162E+04   -0.91359E-05   -0.82970E-05   720   0.122E-03-0.334E-04
CGA:  11    -0.174185818179E+04    0.39829E-04   -0.23681E-04   720   0.224E-02-0.405E-03
CGA:  12    -0.174185822501E+04   -0.43223E-04   -0.55862E-04   720   0.278E-03 0.143E-03
CGA:  13    -0.174185823320E+04   -0.81903E-05   -0.11613E-04   720   0.105E-03 0.498E-04
   2 F= -.17418582E+04 E0= -.17418297E+04  d E =-.125717E-01  mag=    46.0000
       N       E                     dE             d eps       ncg     rms          ort
SDA:   1    -0.174018456378E+04    0.16737E+01    0.00000E+00   720   0.114E+02 0.000E+00
CGA:   2    -0.174067842622E+04   -0.49386E+00   -0.66668E+00   720   0.139E+02-0.110E+01
CGA:   3    -0.174180988063E+04   -0.11315E+01   -0.11256E+01   720   0.523E+01-0.162E+00
CGA:   4    -0.174199102824E+04   -0.18115E+00   -0.20593E+00   720   0.253E+01-0.427E+00
CGA:   5    -0.174212860175E+04   -0.13757E+00   -0.13745E+00   720   0.260E+01 0.383E-02
CGA:   6    -0.174227710676E+04   -0.14851E+00   -0.14696E+00   720   0.119E+01-0.683E-02
CGA:   7    -0.174231808809E+04   -0.40981E-01   -0.38281E-01   720   0.286E+00 0.668E-01
CGA:   8    -0.174233951886E+04   -0.21431E-01   -0.21546E-01   720   0.336E+00 0.645E-04
CGA:   9    -0.174236274767E+04   -0.23229E-01   -0.23211E-01   720   0.177E+00-0.496E-02
CGA:  10    -0.174236821962E+04   -0.54720E-02   -0.58081E-02   720   0.426E-01-0.552E-03
CGA:  11    -0.174237084432E+04   -0.26247E-02   -0.26318E-02   720   0.538E-01-0.702E-03
CGA:  12    -0.174237530038E+04   -0.44561E-02   -0.44557E-02   720   0.561E-01-0.126E-02
CGA:  13    -0.174237782461E+04   -0.25242E-02   -0.25494E-02   720   0.119E-01 0.108E-02
CGA:  14    -0.174237861055E+04   -0.78594E-03   -0.76735E-03   720   0.193E-01-0.105E-02
CGA:  15    -0.174238066650E+04   -0.20559E-02   -0.20119E-02   720   0.165E-01 0.124E-02
CGA:  16    -0.174238124593E+04   -0.57943E-03   -0.60800E-03   720   0.575E-02 0.498E-03
CGA:  17    -0.174238176356E+04   -0.51763E-03   -0.52250E-03   720   0.975E-02-0.677E-03
CGA:  18    -0.174238248070E+04   -0.71714E-03   -0.71573E-03   720   0.683E-02 0.639E-03
CGA:  19    -0.174238280773E+04   -0.32703E-03   -0.33685E-03   720   0.324E-02 0.270E-03
CGA:  20    -0.174238298063E+04   -0.17290E-03   -0.17306E-03   720   0.253E-02 0.120E-04
CGA:  21    -0.174238315188E+04   -0.17125E-03   -0.17369E-03   720   0.161E-02 0.257E-03
CGA:  22    -0.174238331781E+04   -0.16593E-03   -0.16687E-03   720   0.288E-02-0.603E-04
CGA:  23    -0.174238343928E+04   -0.12147E-03   -0.12452E-03   720   0.964E-03 0.750E-04
CGA:  24    -0.174238347174E+04   -0.32456E-04   -0.37588E-04   720   0.537E-03 0.129E-03
CGA:  25    -0.174238351879E+04   -0.47051E-04   -0.46920E-04   720   0.804E-03 0.576E-04
CGA:  26    -0.174238357196E+04   -0.53179E-04   -0.53724E-04   720   0.841E-03 0.380E-04
CGA:  27    -0.174238360743E+04   -0.35464E-04   -0.39571E-04   720   0.333E-03 0.142E-03
CGA:  28    -0.174238362039E+04   -0.12964E-04   -0.15151E-04   720   0.236E-03 0.643E-04
CGA:  29    -0.174238363626E+04   -0.15870E-04   -0.15964E-04   720   0.154E-03 0.571E-05
CGA:  30    -0.174238364873E+04   -0.12470E-04   -0.13223E-04   720   0.313E-03-0.575E-04
CGA:  31    -0.174238365654E+04   -0.78040E-05   -0.79621E-05   720   0.309E-03 0.452E-05
   3 F= -.17423837E+04 E0= -.17423555E+04  d E =-.525423E+00  mag=    46.0000
       N       E                     dE             d eps       ncg     rms          ort
SDA:   1    -0.173484626600E+04    0.75374E+01    0.00000E+00   720   0.408E+02 0.000E+00
CGA:   2    -0.173695694720E+04   -0.21107E+01   -0.22569E+01   720   0.374E+02 0.196E+01
CGA:   3    -0.174007187645E+04   -0.31149E+01   -0.43755E+01   720   0.656E+02-0.247E+02
CGA:   4    -0.174068670864E+04   -0.61483E+00   -0.20261E+01   720   0.354E+02-0.304E+02
CGA:   5    -0.174193277456E+04   -0.12461E+01   -0.79672E+00   720   0.577E+01 0.816E+00
CGA:   6    -0.174217310808E+04   -0.24033E+00   -0.26427E+00   720   0.494E+01-0.263E-01
CGA:   7    -0.174234314100E+04   -0.17003E+00   -0.18705E+00   720   0.635E+01-0.135E+00
CGA:   8    -0.174262633308E+04   -0.28319E+00   -0.27810E+00   720   0.484E+01-0.675E-01
CGA:   9    -0.174277199282E+04   -0.14566E+00   -0.15548E+00   720   0.315E+01-0.224E+00
CGA:  10    -0.174285187249E+04   -0.79880E-01   -0.78683E-01   720   0.757E+00 0.444E-01
CGA:  11    -0.174289757732E+04   -0.45705E-01   -0.45693E-01   720   0.100E+01 0.299E-01
CGA:  12    -0.174293583082E+04   -0.38254E-01   -0.38865E-01   720   0.555E+00-0.119E-01
CGA:  13    -0.174296126059E+04   -0.25430E-01   -0.25514E-01   720   0.227E+00-0.843E-03
CGA:  14    -0.174296765911E+04   -0.63985E-02   -0.66419E-02   720   0.936E-01 0.647E-02
CGA:  15    -0.174297305935E+04   -0.54002E-02   -0.54003E-02   720   0.122E+00 0.153E-02
CGA:  16    -0.174298347831E+04   -0.10419E-01   -0.10487E-01   720   0.202E+00-0.234E-02
CGA:  17    -0.174299137866E+04   -0.79003E-02   -0.81264E-02   720   0.839E-01 0.579E-02
CGA:  18    -0.174299478566E+04   -0.34070E-02   -0.34316E-02   720   0.516E-01-0.118E-02
CGA:  19    -0.174299812346E+04   -0.33378E-02   -0.33933E-02   720   0.766E-01-0.510E-02
CGA:  20    -0.174300261817E+04   -0.44947E-02   -0.44861E-02   720   0.659E-01 0.421E-03
CGA:  21    -0.174300463329E+04   -0.20151E-02   -0.20526E-02   720   0.177E-01-0.127E-02
CGA:  22    -0.174300560331E+04   -0.97002E-03   -0.97055E-03   720   0.187E-01-0.265E-02
CGA:  23    -0.174300678186E+04   -0.11785E-02   -0.11962E-02   720   0.253E-01-0.899E-03
CGA:  24    -0.174300773749E+04   -0.95563E-03   -0.96052E-03   720   0.914E-02 0.116E-03
CGA:  25    -0.174300824862E+04   -0.51114E-03   -0.51110E-03   720   0.876E-02-0.394E-03
CGA:  26    -0.174300859507E+04   -0.34645E-03   -0.35606E-03   720   0.464E-02 0.762E-03
CGA:  27    -0.174300882665E+04   -0.23157E-03   -0.23628E-03   720   0.385E-02 0.569E-03
CGA:  28    -0.174300912052E+04   -0.29388E-03   -0.29758E-03   720   0.638E-02-0.276E-03
CGA:  29    -0.174300941014E+04   -0.28962E-03   -0.29369E-03   720   0.441E-02 0.691E-03
CGA:  30    -0.174300952568E+04   -0.11554E-03   -0.13685E-03   720   0.146E-02 0.807E-03
CGA:  31    -0.174300958664E+04   -0.60954E-04   -0.62961E-04   720   0.104E-02 0.115E-03
CGA:  32    -0.174300967921E+04   -0.92569E-04   -0.13112E-03   720   0.498E-02-0.611E-03
CGA:  33    -0.174300977537E+04   -0.96161E-04   -0.11259E-03   720   0.467E-03 0.488E-03
CGA:  34    -0.174300980633E+04   -0.30965E-04   -0.32363E-04   720   0.431E-03-0.158E-03
CGA:  35    -0.174300961865E+04    0.18768E-03   -0.10284E-03   720   0.116E-01-0.979E-03
CGA:  36    -0.174300988140E+04   -0.26275E-03   -0.29118E-03   720   0.871E-03 0.496E-03
CGA:  37    -0.174300992626E+04   -0.44858E-04   -0.40758E-04   720   0.209E-03-0.869E-04
CGA:  38    -0.174300992750E+04   -0.12414E-05   -0.57038E-05   720   0.930E-04 0.704E-04
   4 F= -.17430099E+04 E0= -.17429825E+04  d E =-.626271E+00  mag=    46.0000
       N       E                     dE             d eps       ncg     rms          ort
SDA:   1    -0.173941732945E+04    0.35926E+01    0.00000E+00   720   0.192E+02 0.000E+00
CGA:   2    -0.174034424235E+04   -0.92691E+00   -0.10785E+01   720   0.231E+02-0.152E+01
CGA:   3    -0.174230963808E+04   -0.19654E+01   -0.19775E+01   720   0.570E+01-0.114E+01
CGA:   4    -0.174257645251E+04   -0.26681E+00   -0.27225E+00   720   0.394E+01-0.122E+00
CGA:   5    -0.174286043429E+04   -0.28398E+00   -0.28465E+00   720   0.492E+01 0.187E-01
CGA:   6    -0.174307173041E+04   -0.21130E+00   -0.22131E+00   720   0.159E+01-0.124E+00
CGA:   7    -0.174311454469E+04   -0.42814E-01   -0.43553E-01   720   0.537E+00-0.222E-02
CGA:   8    -0.174315689250E+04   -0.42348E-01   -0.42359E-01   720   0.680E+00 0.468E-02
CGA:   9    -0.174319299791E+04   -0.36105E-01   -0.36326E-01   720   0.213E+00-0.664E-02
CGA:  10    -0.174319906538E+04   -0.60675E-02   -0.64415E-02   720   0.828E-01 0.269E-02
CGA:  11    -0.174320429701E+04   -0.52316E-02   -0.52492E-02   720   0.106E+00-0.141E-03
CGA:  12    -0.174321459144E+04   -0.10294E-01   -0.10293E-01   720   0.754E-01-0.158E-03
CGA:  13    -0.174321684680E+04   -0.22554E-02   -0.24412E-02   720   0.307E-01 0.195E-02
CGA:  14    -0.174321909690E+04   -0.22501E-02   -0.22453E-02   720   0.418E-01-0.169E-02
CGA:  15    -0.174322371426E+04   -0.46174E-02   -0.47359E-02   720   0.608E-01-0.262E-02
CGA:  16    -0.174322527138E+04   -0.15571E-02   -0.17316E-02   720   0.133E-01 0.944E-03
CGA:  17    -0.174322634120E+04   -0.10698E-02   -0.10688E-02   720   0.242E-01 0.128E-03
CGA:  18    -0.174322798980E+04   -0.16486E-02   -0.16368E-02   720   0.214E-01-0.161E-02
CGA:  19    -0.174322887220E+04   -0.88240E-03   -0.90453E-03   720   0.102E-01 0.906E-03
CGA:  20    -0.174322941102E+04   -0.53882E-03   -0.54089E-03   720   0.822E-02 0.212E-04
CGA:  21    -0.174322988541E+04   -0.47439E-03   -0.46412E-03   720   0.547E-02-0.838E-03
CGA:  22    -0.174323009350E+04   -0.20809E-03   -0.22260E-03   720   0.326E-02 0.566E-03
CGA:  23    -0.174323029871E+04   -0.20520E-03   -0.21042E-03   720   0.357E-02 0.487E-03
CGA:  24    -0.174323055864E+04   -0.25994E-03   -0.25954E-03   720   0.260E-02-0.607E-04
CGA:  25    -0.174323063725E+04   -0.78605E-04   -0.93628E-04   720   0.948E-03 0.467E-03
CGA:  26    -0.174323067942E+04   -0.42173E-04   -0.47519E-04   720   0.952E-03 0.218E-03
CGA:  27    -0.174323080915E+04   -0.12973E-03   -0.15086E-03   720   0.228E-02-0.334E-03
CGA:  28    -0.174323083874E+04   -0.29588E-04   -0.33568E-04   720   0.139E-02 0.820E-04
CGA:  29    -0.174323085877E+04   -0.20030E-04   -0.30257E-04   720   0.834E-03 0.228E-03
CGA:  30    -0.174323087738E+04   -0.18615E-04   -0.25951E-04   720   0.673E-03 0.203E-03
CGA:  31    -0.174323090240E+04   -0.25023E-04   -0.25767E-04   720   0.489E-03 0.339E-04
SDA:  32    -0.174323092439E+04   -0.21981E-04   -0.19201E-04   720   0.440E-03-0.115E-03
CGA:  33    -0.174323093867E+04   -0.14280E-04   -0.15776E-04   720   0.167E-03 0.619E-04
CGA:  34    -0.174323096245E+04   -0.23785E-04    0.80551E-04   720   0.937E-04 0.467E-04
CGA:  35    -0.174323097574E+04   -0.13291E-04   -0.18977E-04   720   0.397E-03-0.572E-04
CGA:  36    -0.174323098776E+04   -0.12022E-04   -0.11759E-04   720   0.684E-04-0.924E-05
CGA:  37    -0.174323099119E+04   -0.34233E-05   -0.36116E-05   720   0.239E-04 0.245E-04
   5 F= -.17432310E+04 E0= -.17432040E+04  d E =-.221064E+00  mag=    46.0000
       N       E                     dE             d eps       ncg     rms          ort
SDA:   1    -0.173916299544E+04    0.40680E+01    0.00000E+00   720   0.163E+02 0.000E+00
CGA:   2    -0.174044974048E+04   -0.12867E+01   -0.12651E+01   720   0.243E+02 0.131E+01
CGA:   3    -0.174227864391E+04   -0.18289E+01   -0.18658E+01   720   0.795E+01-0.264E+01
CGA:   4    -0.174260227613E+04   -0.32363E+00   -0.31179E+00   720   0.389E+01-0.820E-01
CGA:   5    -0.174298834413E+04   -0.38607E+00   -0.38812E+00   720   0.494E+01-0.456E-01
CGA:   6    -0.174319093950E+04   -0.20260E+00   -0.20170E+00   720   0.112E+01 0.120E-01
CGA:   7    -0.174324296427E+04   -0.52025E-01   -0.52881E-01   720   0.591E+00-0.233E-02
CGA:   8    -0.174329058515E+04   -0.47621E-01   -0.47450E-01   720   0.575E+00 0.838E-02
CGA:   9    -0.174331664094E+04   -0.26056E-01   -0.25985E-01   720   0.137E+00-0.146E-01
CGA:  10    -0.174332259657E+04   -0.59556E-02   -0.60987E-02   720   0.870E-01 0.731E-02
CGA:  11    -0.174333295813E+04   -0.10362E-01   -0.10573E-01   720   0.135E+00-0.404E-02
CGA:  12    -0.174333905837E+04   -0.61002E-02   -0.62169E-02   720   0.376E-01 0.588E-02
CGA:  13    -0.174334198652E+04   -0.29281E-02   -0.29812E-02   720   0.501E-01-0.440E-02
CGA:  14    -0.174334668418E+04   -0.46977E-02   -0.44864E-02   720   0.450E-01 0.536E-02
CGA:  15    -0.174334937913E+04   -0.26950E-02   -0.26806E-02   720   0.197E-01-0.118E-02
CGA:  16    -0.174335079821E+04   -0.14191E-02   -0.13960E-02   720   0.240E-01 0.279E-02
CGA:  17    -0.174335345734E+04   -0.26591E-02   -0.27545E-02   720   0.218E-01-0.283E-02
CGA:  18    -0.174335436919E+04   -0.91185E-03   -0.93840E-03   720   0.845E-02 0.138E-02
CGA:  19    -0.174335493111E+04   -0.56192E-03   -0.56265E-03   720   0.651E-02 0.201E-03
CGA:  20    -0.174335557654E+04   -0.64543E-03   -0.63208E-03   720   0.555E-02 0.470E-03
CGA:  21    -0.174335590814E+04   -0.33160E-03   -0.33091E-03   720   0.308E-02-0.819E-04
CGA:  22    -0.174335619993E+04   -0.29180E-03   -0.32319E-03   720   0.488E-02-0.799E-03
CGA:  23    -0.174335628338E+04   -0.83447E-04   -0.11057E-03   720   0.143E-02 0.699E-03
CGA:  24    -0.174335631007E+04   -0.26691E-04   -0.44409E-04   720   0.958E-03 0.441E-03
CGA:  25    -0.174335638540E+04   -0.75332E-04   -0.76359E-04   720   0.137E-02 0.253E-03
CGA:  26    -0.174335649632E+04   -0.11092E-03   -0.11059E-03   720   0.208E-02-0.342E-03
CGA:  27    -0.174335653624E+04   -0.39921E-04   -0.42120E-04   720   0.137E-02 0.599E-04
CGA:  28    -0.174335655372E+04   -0.17479E-04   -0.26444E-04   720   0.650E-03 0.204E-03
CGA:  29    -0.174335656844E+04   -0.14723E-04   -0.19485E-04   720   0.591E-03 0.139E-03
CGA:  30    -0.174335659701E+04   -0.28566E-04   -0.27172E-04   720   0.550E-03-0.698E-04
CGA:  31    -0.174335662232E+04   -0.25318E-04   -0.21827E-04   720   0.771E-03-0.273E-03
SDA:  32    -0.174335663056E+04   -0.82398E-05   -0.66140E-05   720   0.650E-03-0.423E-04
CGA:  33    -0.174335664465E+04   -0.14081E-04   -0.19293E-04   720   0.249E-03 0.203E-03
CGA:  34    -0.174335666610E+04   -0.21455E-04   -0.21132E-04   720   0.102E-03 0.320E-04
CGA:  35    -0.174335667322E+04   -0.71139E-05   -0.76123E-05   720   0.181E-03-0.431E-04
   6 F= -.17433567E+04 E0= -.17433300E+04  d E =-.125682E+00  mag=    46.0000
       N       E                     dE             d eps       ncg     rms          ort
SDA:   1    -0.173288201106E+04    0.10475E+02    0.00000E+00   720   0.339E+02 0.000E+00
CGA:   2    -0.173679304343E+04   -0.39110E+01   -0.39256E+01   720   0.634E+02 0.281E+01
CGA:   3    -0.174062347349E+04   -0.38304E+01   -0.38223E+01   720   0.198E+02-0.629E+01
CGA:   4    -0.174164440910E+04   -0.10209E+01   -0.10366E+01   720   0.169E+02-0.425E+01
CGA:   5    -0.174248335772E+04   -0.83895E+00   -0.83526E+00   720   0.103E+02 0.314E+00
CGA:   6    -0.174295837406E+04   -0.47502E+00   -0.46501E+00   720   0.323E+01-0.192E+00
CGA:   7    -0.174311678270E+04   -0.15841E+00   -0.15939E+00   720   0.192E+01 0.623E-01
CGA:   8    -0.174324947744E+04   -0.13269E+00   -0.13207E+00   720   0.151E+01 0.408E-01
CGA:   9    -0.174330359784E+04   -0.54120E-01   -0.55094E-01   720   0.504E+00-0.340E-01
CGA:  10    -0.174332614215E+04   -0.22544E-01   -0.22734E-01   720   0.318E+00 0.205E-01
CGA:  11    -0.174334716037E+04   -0.21018E-01   -0.20951E-01   720   0.251E+00 0.215E-02
CGA:  12    -0.174336664771E+04   -0.19487E-01   -0.19287E-01   720   0.127E+00 0.762E-02
CGA:  13    -0.174337359394E+04   -0.69462E-02   -0.69450E-02   720   0.100E+00-0.449E-02
CGA:  14    -0.174338095900E+04   -0.73651E-02   -0.71053E-02   720   0.902E-01 0.132E-01
CGA:  15    -0.174338720760E+04   -0.62486E-02   -0.62724E-02   720   0.731E-01-0.660E-02
CGA:  16    -0.174339275669E+04   -0.55491E-02   -0.54640E-02   720   0.460E-01 0.307E-02
CGA:  17    -0.174339558645E+04   -0.28298E-02   -0.28292E-02   720   0.414E-01 0.257E-03
CGA:  18    -0.174339941976E+04   -0.38333E-02   -0.37815E-02   720   0.367E-01 0.144E-02
CGA:  19    -0.174340198972E+04   -0.25700E-02   -0.25742E-02   720   0.239E-01-0.839E-03
CGA:  20    -0.174340327956E+04   -0.12898E-02   -0.12830E-02   720   0.154E-01-0.120E-02
CGA:  21    -0.174340447902E+04   -0.11995E-02   -0.11642E-02   720   0.852E-02 0.182E-02
CGA:  22    -0.174340526288E+04   -0.78386E-03   -0.82581E-03   720   0.113E-01-0.166E-02
CGA:  23    -0.174340582785E+04   -0.56497E-03   -0.56524E-03   720   0.482E-02 0.106E-02
CGA:  24    -0.174340606900E+04   -0.24115E-03   -0.24433E-03   720   0.234E-02 0.155E-03
CGA:  25    -0.174340634620E+04   -0.27720E-03   -0.29594E-03   720   0.566E-02-0.305E-03
CGA:  26    -0.174340658485E+04   -0.23865E-03   -0.24977E-03   720   0.226E-02 0.794E-03
CGA:  27    -0.174340667067E+04   -0.85819E-04   -0.89157E-04   720   0.877E-03 0.872E-04
CGA:  28    -0.174340674348E+04   -0.72805E-04   -0.15899E-03   720   0.544E-02-0.767E-03
CGA:  29    -0.174340685423E+04   -0.11075E-03   -0.14603E-03   720   0.566E-03 0.881E-03
CGA:  30    -0.174340688728E+04   -0.33054E-04   -0.31895E-04   720   0.357E-03-0.668E-04
CGA:  31    -0.174340692298E+04   -0.35701E-04   -0.33341E-04   720   0.525E-03 0.578E-04
CGA:  32    -0.174340695231E+04   -0.29324E-04   -0.31690E-04   720   0.201E-03 0.155E-03
CGA:  33    -0.174340643803E+04    0.51428E-03   -0.28247E-03   720   0.185E-01-0.173E-02
CGA:  34    -0.174340687372E+04   -0.43569E-03   -0.52903E-03   720   0.190E-02 0.194E-02
CGA:  35    -0.174340696609E+04   -0.92378E-04   -0.79658E-04   720   0.280E-03-0.978E-04
CGA:  36    -0.174340697770E+04   -0.11605E-04   -0.13784E-04   720   0.158E-03 0.353E-04
CGA:  37    -0.174340700638E+04   -0.28679E-04   -0.29042E-04   720   0.175E-03-0.652E-05
CGA:  38    -0.174340701665E+04   -0.10277E-04   -0.85625E-05   720   0.770E-04-0.282E-04
CGA:  39    -0.174340701535E+04    0.13001E-05   -0.14399E-05   720   0.320E-04 0.314E-04
   7 F= -.17434070E+04 E0= -.17433811E+04  d E =-.503421E-01  mag=    46.0000
       N       E                     dE             d eps       ncg     rms          ort
SDA:   1    -0.174055631957E+04    0.28507E+01    0.00000E+00   720   0.760E+01 0.000E+00
CGA:   2    -0.174250613867E+04   -0.19498E+01   -0.19557E+01   720   0.956E+01-0.499E-01
CGA:   3    -0.174284786419E+04   -0.34173E+00   -0.45561E+00   720   0.516E+01-0.143E+01
CGA:   4    -0.174316367117E+04   -0.31581E+00   -0.30308E+00   720   0.288E+01 0.292E-01
CGA:   5    -0.174331703983E+04   -0.15337E+00   -0.15769E+00   720   0.121E+01-0.700E-01
CGA:   6    -0.174337892390E+04   -0.61884E-01   -0.59297E-01   720   0.422E+00 0.253E-01
CGA:   7    -0.174341128513E+04   -0.32361E-01   -0.32575E-01   720   0.345E+00 0.324E-02
CGA:   8    -0.174343076936E+04   -0.19484E-01   -0.19142E-01   720   0.123E+00-0.784E-04
CGA:   9    -0.174343635818E+04   -0.55888E-02   -0.56344E-02   720   0.627E-01 0.433E-02
CGA:  10    -0.174344228365E+04   -0.59255E-02   -0.59209E-02   720   0.526E-01-0.326E-02
CGA:  11    -0.174344560493E+04   -0.33213E-02   -0.33753E-02   720   0.188E-01 0.213E-02
CGA:  12    -0.174344665572E+04   -0.10508E-02   -0.10551E-02   720   0.161E-01-0.199E-04
CGA:  13    -0.174344818178E+04   -0.15261E-02   -0.15336E-02   720   0.194E-01-0.136E-02
CGA:  14    -0.174344910232E+04   -0.92053E-03   -0.94805E-03   720   0.656E-02 0.654E-03
CGA:  15    -0.174344950259E+04   -0.40027E-03   -0.39191E-03   720   0.579E-02-0.230E-03
CGA:  16    -0.174345025676E+04   -0.75417E-03   -0.75298E-03   720   0.960E-02 0.239E-04
CGA:  17    -0.174345070093E+04   -0.44417E-03   -0.44716E-03   720   0.346E-02 0.105E-03
CGA:  18    -0.174345091815E+04   -0.21722E-03   -0.20332E-03   720   0.273E-02-0.501E-03
CGA:  19    -0.174345117977E+04   -0.26161E-03   -0.25240E-03   720   0.239E-02 0.402E-03
CGA:  20    -0.174345137407E+04   -0.19431E-03   -0.19246E-03   720   0.144E-02-0.111E-03
CGA:  21    -0.174345145334E+04   -0.79270E-04   -0.78899E-04   720   0.119E-02-0.145E-04
CGA:  22    -0.174345154461E+04   -0.91266E-04   -0.92202E-04   720   0.828E-03 0.152E-03
CGA:  23    -0.174345160807E+04   -0.63461E-04   -0.60511E-04   720   0.866E-03-0.156E-03
CGA:  24    -0.174345165113E+04   -0.43061E-04   -0.46771E-04   720   0.382E-03 0.223E-03
CGA:  25    -0.174345166808E+04   -0.16949E-04   -0.20616E-04   720   0.254E-03 0.923E-04
CGA:  26    -0.174345168978E+04   -0.21698E-04   -0.66676E-04   720   0.232E-02-0.344E-03
CGA:  27    -0.174345173426E+04   -0.44483E-04   -0.62633E-04   720   0.242E-03 0.305E-03
CGA:  28    -0.174345174049E+04   -0.62251E-05   -0.89380E-05   720   0.567E-04 0.555E-04
   8 F= -.17434517E+04 E0= -.17434258E+04  d E =-.447251E-01  mag=    46.0000
       N       E                     dE             d eps       ncg     rms          ort
SDA:   1    -0.174284202315E+04    0.60971E+00    0.00000E+00   720   0.234E+01 0.000E+00
CGA:   2    -0.174305101374E+04   -0.20899E+00   -0.20743E+00   720   0.362E+01 0.137E+00
CGA:   3    -0.174331163462E+04   -0.26062E+00   -0.26236E+00   720   0.113E+01 0.348E-01
CGA:   4    -0.174337906832E+04   -0.67434E-01   -0.67413E-01   720   0.695E+00 0.163E-02
CGA:   5    -0.174342683509E+04   -0.47767E-01   -0.47971E-01   720   0.636E+00 0.711E-03
CGA:   6    -0.174346167048E+04   -0.34835E-01   -0.34645E-01   720   0.152E+00 0.619E-02
CGA:   7    -0.174346963348E+04   -0.79630E-02   -0.78944E-02   720   0.734E-01 0.602E-03
CGA:   8    -0.174347665294E+04   -0.70195E-02   -0.70681E-02   720   0.574E-01-0.258E-02
CGA:   9    -0.174347912604E+04   -0.24731E-02   -0.25658E-02   720   0.152E-01 0.337E-02
CGA:  10    -0.174348018914E+04   -0.10631E-02   -0.10412E-02   720   0.139E-01-0.186E-02
CGA:  11    -0.174348109852E+04   -0.90937E-03   -0.91202E-03   720   0.101E-01 0.144E-02
CGA:  12    -0.174348182293E+04   -0.72441E-03   -0.71772E-03   720   0.490E-02-0.639E-03
CGA:  13    -0.174348232593E+04   -0.50300E-03   -0.56127E-03   720   0.966E-02-0.125E-02
CGA:  14    -0.174348253885E+04   -0.21292E-03   -0.26195E-03   720   0.376E-02 0.120E-02
CGA:  15    -0.174348266395E+04   -0.12510E-03   -0.14870E-03   720   0.243E-02 0.592E-03
CGA:  16    -0.174348291314E+04   -0.24919E-03   -0.26754E-03   720   0.710E-02-0.888E-03
CGA:  17    -0.174348307660E+04   -0.16345E-03   -0.15256E-03   720   0.712E-02-0.333E-03
CGA:  18    -0.174348319988E+04   -0.12328E-03   -0.14243E-03   720   0.285E-02 0.378E-03
CGA:  19    -0.174348326047E+04   -0.60598E-04   -0.74312E-04   720   0.205E-02 0.326E-03
CGA:  20    -0.174348334041E+04   -0.79935E-04   -0.79234E-04   720   0.190E-02 0.133E-04
CGA:  21    -0.174348341192E+04   -0.71510E-04   -0.63919E-04   720   0.186E-02-0.165E-03
CGA:  22    -0.174348345503E+04   -0.43107E-04   -0.45858E-04   720   0.157E-02 0.987E-04
CGA:  23    -0.174348348107E+04   -0.26048E-04   -0.36178E-04   720   0.989E-03 0.250E-03
CGA:  24    -0.174348350847E+04   -0.27395E-04   -0.31130E-04   720   0.904E-03 0.110E-03
CGA:  25    -0.174348356340E+04   -0.54927E-04   -0.51238E-04   720   0.143E-02-0.461E-03
CGA:  26    -0.174348362615E+04   -0.62753E-04   -0.59815E-04   720   0.323E-03-0.176E-03
CGA:  27    -0.174348362839E+04   -0.22404E-05   -0.68037E-05   720   0.113E-03 0.135E-03
   9 F= -.17434836E+04 E0= -.17434578E+04  d E =-.318879E-01  mag=    46.0000
       N       E                     dE             d eps       ncg     rms          ort
SDA:   1    -0.174218274571E+04    0.13009E+01    0.00000E+00   720   0.370E+01 0.000E+00
CGA:   2    -0.174280084323E+04   -0.61810E+00   -0.63951E+00   720   0.112E+02-0.183E+00
CGA:   3    -0.174320244161E+04   -0.40160E+00   -0.41630E+00   720   0.168E+01-0.994E-01
CGA:   4    -0.174332889969E+04   -0.12646E+00   -0.13012E+00   720   0.223E+01-0.148E+00
CGA:   5    -0.174342202382E+04   -0.93124E-01   -0.94054E-01   720   0.116E+01 0.846E-02
CGA:   6    -0.174346336427E+04   -0.41340E-01   -0.44277E-01   720   0.422E+00-0.109E-01
CGA:   7    -0.174347924985E+04   -0.15886E-01   -0.15831E-01   720   0.147E+00 0.102E-01
CGA:   8    -0.174349017252E+04   -0.10923E-01   -0.10849E-01   720   0.166E+00 0.497E-02
CGA:   9    -0.174349956708E+04   -0.93946E-02   -0.93842E-02   720   0.552E-01-0.363E-02
CGA:  10    -0.174350150377E+04   -0.19367E-02   -0.19582E-02   720   0.188E-01 0.222E-02
CGA:  11    -0.174350311236E+04   -0.16086E-02   -0.15978E-02   720   0.269E-01 0.399E-03
CGA:  12    -0.174350482372E+04   -0.17114E-02   -0.17218E-02   720   0.118E-01-0.251E-02
CGA:  13    -0.174350523195E+04   -0.40824E-03   -0.42956E-03   720   0.625E-02 0.113E-02
CGA:  14    -0.174350575769E+04   -0.52573E-03   -0.52375E-03   720   0.560E-02 0.142E-03
CGA:  15    -0.174350608683E+04   -0.32915E-03   -0.32746E-03   720   0.501E-02-0.118E-02
CGA:  16    -0.174350623583E+04   -0.14899E-03   -0.16119E-03   720   0.310E-02 0.700E-03
CGA:  17    -0.174350638322E+04   -0.14740E-03   -0.15686E-03   720   0.317E-02 0.707E-03
CGA:  18    -0.174350669366E+04   -0.31043E-03   -0.34779E-03   720   0.378E-02-0.116E-02
CGA:  19    -0.174350677785E+04   -0.84188E-04   -0.80111E-04   720   0.214E-02-0.172E-03
CGA:  20    -0.174350682325E+04   -0.45405E-04   -0.56961E-04   720   0.145E-02 0.404E-03
CGA:  21    -0.174350688591E+04   -0.62663E-04   -0.70054E-04   720   0.163E-02 0.491E-03
CGA:  22    -0.174350700155E+04   -0.11564E-03   -0.11549E-03   720   0.127E-02-0.330E-04
CGA:  23    -0.174350705111E+04   -0.49558E-04   -0.45966E-04   720   0.741E-03-0.191E-03
CGA:  24    -0.174350707455E+04   -0.23446E-04   -0.24570E-04   720   0.830E-03 0.735E-04
CGA:  25    -0.174350712336E+04   -0.48810E-04   -0.48792E-04   720   0.822E-03 0.125E-03
CGA:  26    -0.174350717341E+04   -0.50044E-04   -0.49805E-04   720   0.425E-03-0.372E-03
CGA:  27    -0.174350718470E+04   -0.11289E-04   -0.10501E-04   720   0.332E-03-0.975E-04
CGA:  28    -0.174350719948E+04   -0.14781E-04   -0.14763E-04   720   0.378E-03 0.344E-05
CGA:  29    -0.174350722271E+04   -0.23230E-04   -0.23336E-04   720   0.316E-03-0.119E-04
CGA:  30    -0.174350722866E+04   -0.59547E-05   -0.84957E-05   720   0.114E-03 0.988E-04
  10 F= -.17435072E+04 E0= -.17434815E+04  d E =-.236003E-01  mag=    46.0000
       N       E                     dE             d eps       ncg     rms          ort
SDA:   1    -0.173667371886E+04    0.68335E+01    0.00000E+00   720   0.181E+02 0.000E+00
CGA:   2    -0.173978484804E+04   -0.31111E+01   -0.32647E+01   720   0.609E+02-0.623E+00
CGA:   3    -0.174216417054E+04   -0.23793E+01   -0.23698E+01   720   0.766E+01-0.134E+01
CGA:   4    -0.174279471531E+04   -0.63054E+00   -0.60525E+00   720   0.823E+01 0.776E+00
CGA:   5    -0.174322790947E+04   -0.43319E+00   -0.44172E+00   720   0.275E+01 0.304E+00
CGA:   6    -0.174336873559E+04   -0.14083E+00   -0.14181E+00   720   0.118E+01 0.441E-01
CGA:   7    -0.174342908378E+04   -0.60348E-01   -0.59998E-01   720   0.666E+00-0.683E-02
CGA:   8    -0.174348552816E+04   -0.56444E-01   -0.56281E-01   720   0.441E+00 0.416E-02
CGA:   9    -0.174350276453E+04   -0.17236E-01   -0.17630E-01   720   0.123E+00-0.976E-03
CGA:  10    -0.174351245683E+04   -0.96923E-02   -0.95243E-02   720   0.112E+00 0.802E-02
CGA:  11    -0.174352033406E+04   -0.78772E-02   -0.79197E-02   720   0.912E-01-0.657E-02
CGA:  12    -0.174352426223E+04   -0.39282E-02   -0.39343E-02   720   0.247E-01 0.109E-03
CGA:  13    -0.174352611919E+04   -0.18570E-02   -0.18298E-02   720   0.261E-01 0.170E-02
CGA:  14    -0.174352828421E+04   -0.21650E-02   -0.22792E-02   720   0.317E-01-0.502E-02
CGA:  15    -0.174352938829E+04   -0.11041E-02   -0.11364E-02   720   0.104E-01 0.195E-02
CGA:  16    -0.174352985493E+04   -0.46665E-03   -0.48191E-03   720   0.854E-02 0.103E-02
CGA:  17    -0.174353072119E+04   -0.86626E-03   -0.10692E-02   720   0.238E-01-0.363E-02
CGA:  18    -0.174353116509E+04   -0.44389E-03   -0.44370E-03   720   0.188E-01-0.612E-04
CGA:  19    -0.174353149504E+04   -0.32995E-03   -0.40187E-03   720   0.657E-02 0.185E-02
CGA:  20    -0.174353164311E+04   -0.14807E-03   -0.18580E-03   720   0.441E-02 0.125E-02
CGA:  21    -0.174353184478E+04   -0.20167E-03   -0.20426E-03   720   0.500E-02 0.192E-03
CGA:  22    -0.174353212240E+04   -0.27762E-03   -0.27471E-03   720   0.814E-02-0.109E-02
CGA:  23    -0.174353227654E+04   -0.15414E-03   -0.14731E-03   720   0.569E-02-0.145E-03
CGA:  24    -0.174353235705E+04   -0.80516E-04   -0.96793E-04   720   0.281E-02 0.450E-03
CGA:  25    -0.174353240641E+04   -0.49354E-04   -0.63562E-04   720   0.252E-02 0.460E-03
CGA:  26    -0.174353249574E+04   -0.89335E-04   -0.93101E-04   720   0.319E-02 0.195E-03
CGA:  27    -0.174353261664E+04   -0.12089E-03   -0.11200E-03   720   0.325E-02-0.564E-03
CGA:  28    -0.174353269844E+04   -0.81798E-04   -0.70071E-04   720   0.283E-02-0.556E-03
CGA:  29    -0.174353274171E+04   -0.43277E-04   -0.42800E-04   720   0.167E-02-0.118E-04
CGA:  30    -0.174353276094E+04   -0.19229E-04   -0.26218E-04   720   0.103E-02 0.233E-03
CGA:  31    -0.174353277878E+04   -0.17835E-04   -0.23820E-04   720   0.111E-02 0.246E-03
SDA:  32    -0.174353282359E+04   -0.44809E-04   -0.46153E-04   720   0.182E-02 0.141E-03
CGA:  33    -0.174353291759E+04   -0.94007E-04   -0.10829E-03   720   0.161E-02-0.841E-03
CGA:  34    -0.174353292548E+04   -0.78824E-05   -0.17926E-04   720   0.960E-03 0.441E-03
CGA:  35    -0.174353293179E+04   -0.63137E-05   -0.19026E-04   720   0.334E-03 0.475E-03
CGA:  36    -0.174353293963E+04   -0.78384E-05   -0.11120E-04   720   0.256E-03 0.175E-03
CGA:  37    -0.174353297028E+04   -0.30653E-04    0.10418E-04   720   0.151E-03 0.348E-04
CGA:  38    -0.174353298121E+04   -0.10926E-04   -0.93071E-05   720   0.115E-03 0.114E-03
CGA:  39    -0.174353298153E+04   -0.32399E-06   -0.22315E-05   720   0.817E-04 0.888E-04
  11 F= -.17435330E+04 E0= -.17435077E+04  d E =-.257529E-01  mag=    46.0000
       N       E                     dE             d eps       ncg     rms          ort
SDA:   1    -0.173360863251E+04    0.99243E+01    0.00000E+00   720   0.268E+02 0.000E+00
CGA:   2    -0.173809229415E+04   -0.44837E+01   -0.47244E+01   720   0.716E+02 0.602E+00
CGA:   3    -0.174150434426E+04   -0.34121E+01   -0.33947E+01   720   0.140E+02-0.885E+01
CGA:   4    -0.174246130375E+04   -0.95696E+00   -0.96123E+00   720   0.117E+02-0.102E+00
CGA:   5    -0.174308660113E+04   -0.62530E+00   -0.62267E+00   720   0.440E+01 0.301E+00
CGA:   6    -0.174329260694E+04   -0.20601E+00   -0.20376E+00   720   0.212E+01-0.202E+00
CGA:   7    -0.174340755731E+04   -0.11495E+00   -0.11473E+00   720   0.961E+00 0.873E-02
CGA:   8    -0.174348339252E+04   -0.75835E-01   -0.73595E-01   720   0.449E+00 0.686E-01
CGA:   9    -0.174350776736E+04   -0.24375E-01   -0.24370E-01   720   0.233E+00 0.254E-01
CGA:  10    -0.174352586998E+04   -0.18103E-01   -0.18027E-01   720   0.212E+00 0.223E-02
CGA:  11    -0.174353634275E+04   -0.10473E-01   -0.10486E-01   720   0.875E-01 0.468E-02
CGA:  12    -0.174354185193E+04   -0.55092E-02   -0.55814E-02   720   0.610E-01-0.643E-02
CGA:  13    -0.174354664330E+04   -0.47914E-02   -0.47407E-02   720   0.423E-01 0.140E-02
CGA:  14    -0.174354924964E+04   -0.26063E-02   -0.25945E-02   720   0.230E-01 0.170E-02
CGA:  15    -0.174355120132E+04   -0.19517E-02   -0.20227E-02   720   0.354E-01-0.240E-02
CGA:  16    -0.174355312967E+04   -0.19283E-02   -0.19220E-02   720   0.168E-01 0.124E-02
CGA:  17    -0.174355415684E+04   -0.10272E-02   -0.10270E-02   720   0.112E-01 0.265E-04
CGA:  18    -0.174355514033E+04   -0.98350E-03   -0.10503E-02   720   0.192E-01-0.181E-02
CGA:  19    -0.174355601187E+04   -0.87153E-03   -0.87702E-03   720   0.102E-01 0.159E-02
CGA:  20    -0.174355646611E+04   -0.45424E-03   -0.46193E-03   720   0.414E-02 0.498E-03
CGA:  21    -0.174355676329E+04   -0.29719E-03   -0.32559E-03   720   0.787E-02-0.159E-02
CGA:  22    -0.174355707194E+04   -0.30864E-03   -0.30785E-03   720   0.930E-02 0.130E-03
CGA:  23    -0.174355730580E+04   -0.23386E-03   -0.26424E-03   720   0.240E-02 0.102E-02
CGA:  24    -0.174355741569E+04   -0.10989E-03   -0.10787E-03   720   0.173E-02-0.121E-03
CGA:  25    -0.174355752943E+04   -0.11373E-03   -0.14047E-03   720   0.440E-02-0.901E-03
CGA:  26    -0.174355763623E+04   -0.10681E-03   -0.13183E-03   720   0.898E-03 0.948E-03
CGA:  27    -0.174355770844E+04   -0.72206E-04   -0.74495E-04   720   0.869E-03-0.183E-03
CGA:  28    -0.174355777551E+04   -0.67071E-04   -0.15807E-03   720   0.441E-02-0.532E-03
CGA:  29    -0.174355786855E+04   -0.93036E-04   -0.12351E-03   720   0.647E-03 0.804E-03
CGA:  30    -0.174355791658E+04   -0.48039E-04   -0.47863E-04   720   0.370E-03-0.254E-03
CGA:  31    -0.174355794784E+04   -0.31259E-04    0.70981E-04   720   0.356E-03 0.105E-03
CGA:  32    -0.174355796556E+04   -0.17715E-04   -0.20686E-04   720   0.890E-04 0.167E-03
CGA:  33    -0.174355797181E+04   -0.62470E-05   -0.67244E-05   720   0.775E-04 0.439E-04
  12 F= -.17435580E+04 E0= -.17435332E+04  d E =-.249903E-01  mag=    46.0000
       N       E                     dE             d eps       ncg     rms          ort
SDA:   1    -0.174145317466E+04    0.21048E+01    0.00000E+00   720   0.882E+01 0.000E+00
CGA:   2    -0.174195473581E+04   -0.50156E+00   -0.59185E+00   720   0.112E+02-0.367E+00
CGA:   3    -0.174301991959E+04   -0.10652E+01   -0.10533E+01   720   0.570E+01-0.337E+00
CGA:   4    -0.174324604772E+04   -0.22613E+00   -0.26214E+00   720   0.251E+01-0.462E+00
CGA:   5    -0.174340131550E+04   -0.15527E+00   -0.16301E+00   720   0.186E+01-0.809E-02
CGA:   6    -0.174349600052E+04   -0.94685E-01   -0.96056E-01   720   0.745E+00 0.813E-02
CGA:   7    -0.174353068561E+04   -0.34685E-01   -0.36352E-01   720   0.276E+00-0.205E-01
CGA:   8    -0.174354808289E+04   -0.17397E-01   -0.17626E-01   720   0.214E+00-0.482E-02
CGA:   9    -0.174356245271E+04   -0.14370E-01   -0.14417E-01   720   0.626E-01 0.254E-02
CGA:  10    -0.174356622882E+04   -0.37761E-02   -0.37745E-02   720   0.413E-01-0.201E-02
CGA:  11    -0.174356859299E+04   -0.23642E-02   -0.24402E-02   720   0.353E-01 0.845E-03
CGA:  12    -0.174357072280E+04   -0.21298E-02   -0.21494E-02   720   0.150E-01 0.279E-03
CGA:  13    -0.174357186113E+04   -0.11383E-02   -0.11218E-02   720   0.122E-01-0.112E-02
CGA:  14    -0.174357247080E+04   -0.60967E-03   -0.65622E-03   720   0.637E-02 0.145E-02
CGA:  15    -0.174357297510E+04   -0.50430E-03   -0.50307E-03   720   0.669E-02-0.992E-04
CGA:  16    -0.174357341426E+04   -0.43915E-03   -0.44386E-03   720   0.509E-02 0.204E-03
CGA:  17    -0.174357369153E+04   -0.27727E-03   -0.29206E-03   720   0.281E-02 0.471E-03
CGA:  18    -0.174357393414E+04   -0.24261E-03   -0.23876E-03   720   0.330E-02-0.543E-03
CGA:  19    -0.174357412291E+04   -0.18876E-03   -0.19174E-03   720   0.293E-02 0.225E-03
CGA:  20    -0.174357427379E+04   -0.15088E-03   -0.15106E-03   720   0.103E-02-0.855E-05
CGA:  21    -0.174357436126E+04   -0.87467E-04   -0.90709E-04   720   0.258E-02-0.530E-03
CGA:  22    -0.174357440346E+04   -0.42205E-04   -0.62488E-04   720   0.352E-03 0.343E-03
CGA:  23    -0.174357443246E+04   -0.28996E-04   -0.29285E-04   720   0.507E-03 0.452E-04
CGA:  24    -0.174357445201E+04   -0.19548E-04   -0.11678E-03   720   0.468E-02-0.784E-03
CGA:  25    -0.174357453429E+04   -0.82284E-04   -0.11579E-03   720   0.495E-03 0.582E-03
CGA:  26    -0.174357455617E+04   -0.21883E-04   -0.24432E-04   720   0.156E-03 0.687E-04
CGA:  27    -0.174357450509E+04    0.51080E-04   -0.44418E-04   720   0.491E-02-0.568E-03
CGA:  28    -0.174357458661E+04   -0.81518E-04   -0.11194E-03   720   0.246E-03 0.471E-03
CGA:  29    -0.174357459990E+04   -0.13288E-04   -0.12937E-04   720   0.991E-04-0.950E-05
CGA:  30    -0.174357441391E+04    0.18599E-03   -0.36925E-04   720   0.961E-02-0.735E-03
CGA:  31    -0.174357459505E+04   -0.18114E-03   -0.22732E-03   720   0.470E-03 0.712E-03
CGA:  32    -0.174357461596E+04   -0.20911E-04   -0.22235E-04   720   0.994E-04 0.287E-04
CGA:  33    -0.174357462568E+04   -0.97195E-05   -0.87611E-05   720   0.316E-03-0.992E-04
  13 F= -.17435746E+04 E0= -.17435496E+04  d E =-.166539E-01  mag=    46.0000
       N       E                     dE             d eps       ncg     rms          ort
SDA:   1    -0.174309419976E+04    0.48042E+00    0.00000E+00   720   0.151E+01 0.000E+00
CGA:   2    -0.174323985094E+04   -0.14565E+00   -0.14552E+00   720   0.333E+01 0.171E-01
CGA:   3    -0.174348437540E+04   -0.24452E+00   -0.24539E+00   720   0.779E+00-0.240E-02
CGA:   4    -0.174352697794E+04   -0.42603E-01   -0.42023E-01   720   0.448E+00 0.131E-02
CGA:   5    -0.174356307424E+04   -0.36096E-01   -0.36097E-01   720   0.407E+00 0.230E-02
CGA:   6    -0.174358037049E+04   -0.17296E-01   -0.17024E-01   720   0.748E-01-0.339E-02
CGA:   7    -0.174358477366E+04   -0.44032E-02   -0.44696E-02   720   0.515E-01 0.201E-02
CGA:   8    -0.174359000513E+04   -0.52315E-02   -0.52382E-02   720   0.322E-01-0.360E-03
CGA:   9    -0.174359126839E+04   -0.12633E-02   -0.12721E-02   720   0.629E-02 0.403E-03
CGA:  10    -0.174359216830E+04   -0.89991E-03   -0.94067E-03   720   0.124E-01-0.621E-03
CGA:  11    -0.174359276111E+04   -0.59282E-03   -0.60245E-03   720   0.310E-02 0.292E-03
CGA:  12    -0.174359292238E+04   -0.16127E-03   -0.15326E-03   720   0.199E-02-0.243E-03
CGA:  13    -0.174359310652E+04   -0.18414E-03   -0.18560E-03   720   0.276E-02-0.765E-04
CGA:  14    -0.174359332348E+04   -0.21696E-03   -0.21650E-03   720   0.157E-02-0.547E-03
CGA:  15    -0.174359340569E+04   -0.82205E-04   -0.68074E-04   720   0.101E-02-0.506E-03
CGA:  16    -0.174359343859E+04   -0.32900E-04   -0.38193E-04   720   0.576E-03 0.209E-03
CGA:  17    -0.174359347943E+04   -0.40841E-04   -0.42680E-04   720   0.459E-03 0.101E-03
CGA:  18    -0.174359352359E+04   -0.44159E-04   -0.79476E-04   720   0.220E-02-0.518E-03
CGA:  19    -0.174359354913E+04   -0.25542E-04   -0.48539E-04   720   0.230E-03 0.390E-03
CGA:  20    -0.174359355256E+04   -0.34366E-05   -0.78836E-05   720   0.947E-04 0.889E-04
CGA:  21    -0.174359356233E+04   -0.97675E-05   -0.14172E-04   720   0.491E-03-0.141E-03
CGA:  22    -0.174359357184E+04   -0.95044E-05   -0.13712E-04   720   0.796E-04 0.827E-04
  14 F= -.17435936E+04 E0= -.17435687E+04  d E =-.189462E-01  mag=    46.0000
       N       E                     dE             d eps       ncg     rms          ort
SDA:   1    -0.174338761795E+04    0.20594E+00    0.00000E+00   720   0.630E+00 0.000E+00
CGA:   2    -0.174345951150E+04   -0.71894E-01   -0.71181E-01   720   0.142E+01 0.161E-01
CGA:   3    -0.174354991328E+04   -0.90402E-01   -0.89590E-01   720   0.496E+00-0.268E-01
CGA:   4    -0.174357512643E+04   -0.25213E-01   -0.24859E-01   720   0.156E+00 0.380E-02
CGA:   5    -0.174358589586E+04   -0.10769E-01   -0.10767E-01   720   0.171E+00 0.260E-02
CGA:   6    -0.174359695674E+04   -0.11061E-01   -0.11062E-01   720   0.369E-01-0.171E-02
CGA:   7    -0.174359877303E+04   -0.18163E-02   -0.18606E-02   720   0.137E-01 0.178E-02
CGA:   8    -0.174359974235E+04   -0.96932E-03   -0.97479E-03   720   0.138E-01 0.977E-03
CGA:   9    -0.174360078387E+04   -0.10415E-02   -0.10414E-02   720   0.493E-02-0.601E-05
CGA:  10    -0.174360098459E+04   -0.20072E-03   -0.20493E-03   720   0.169E-02 0.130E-03
CGA:  11    -0.174360114784E+04   -0.16325E-03   -0.36976E-03   720   0.118E-01-0.146E-02
CGA:  12    -0.174360136729E+04   -0.21945E-03   -0.26972E-03   720   0.837E-03 0.675E-03
CGA:  13    -0.174360139405E+04   -0.26767E-04   -0.33221E-04   720   0.308E-03 0.174E-03
CGA:  14    -0.174360132359E+04    0.70466E-04   -0.11915E-03   720   0.787E-02-0.770E-03
CGA:  15    -0.174360148777E+04   -0.16419E-03   -0.19819E-03   720   0.830E-03 0.427E-03
CGA:  16    -0.174360153795E+04   -0.50180E-04   -0.45444E-04   720   0.258E-03-0.161E-03
CGA:  17    -0.174360155656E+04   -0.18606E-04   -0.25961E-04   720   0.102E-02-0.170E-03
CGA:  18    -0.174360156538E+04   -0.88245E-05   -0.20979E-04   720   0.100E-03 0.195E-03
  15 F= -.17436016E+04 E0= -.17435768E+04  d E =-.799355E-02  mag=    46.0000
       N       E                     dE             d eps       ncg     rms          ort
SDA:   1    -0.172739229438E+04    0.16209E+02    0.00000E+00   720   0.421E+02 0.000E+00
CGA:   2    -0.173526765866E+04   -0.78754E+01   -0.91903E+01   720   0.146E+03-0.218E+01
CGA:   3    -0.174014901169E+04   -0.48814E+01   -0.57095E+01   720   0.309E+02-0.287E+02
CGA:   4    -0.174135938529E+04   -0.12104E+01   -0.11875E+01   720   0.168E+02-0.164E+01
CGA:   5    -0.174229352325E+04   -0.93414E+00   -0.84345E+00   720   0.172E+02-0.380E-01
CGA:   6    -0.174296818807E+04   -0.67466E+00   -0.62738E+00   720   0.961E+01 0.405E+00
CGA:   7    -0.174324186809E+04   -0.27368E+00   -0.27363E+00   720   0.370E+01-0.267E+00
CGA:   8    -0.174337328482E+04   -0.13142E+00   -0.11295E+00   720   0.162E+01 0.440E+00
CGA:   9    -0.174344608483E+04   -0.72800E-01   -0.76610E-01   720   0.153E+01-0.138E-01
CGA:  10    -0.174352576285E+04   -0.79678E-01   -0.80882E-01   720   0.168E+01 0.159E-02
CGA:  11    -0.174357540331E+04   -0.49640E-01   -0.50172E-01   720   0.483E+00-0.867E-02
CGA:  12    -0.174358989752E+04   -0.14494E-01   -0.14169E-01   720   0.236E+00 0.253E-01
CGA:  13    -0.174360138456E+04   -0.11487E-01   -0.11583E-01   720   0.262E+00 0.924E-04
CGA:  14    -0.174361641191E+04   -0.15027E-01   -0.14970E-01   720   0.306E+00-0.110E-01
CGA:  15    -0.174362877388E+04   -0.12362E-01   -0.12358E-01   720   0.115E+00 0.868E-03
CGA:  16    -0.174363130663E+04   -0.25328E-02   -0.27987E-02   720   0.353E-01 0.117E-02
CGA:  17    -0.174363375151E+04   -0.24449E-02   -0.24420E-02   720   0.762E-01 0.655E-03
CGA:  18    -0.174363894722E+04   -0.51957E-02   -0.52130E-02   720   0.839E-01-0.360E-02
CGA:  19    -0.174364170325E+04   -0.27560E-02   -0.27660E-02   720   0.262E-01-0.167E-02
CGA:  20    -0.174364248799E+04   -0.78474E-03   -0.79490E-03   720   0.142E-01-0.645E-04
CGA:  21    -0.174364356073E+04   -0.10727E-02   -0.10863E-02   720   0.278E-01-0.875E-03
CGA:  22    -0.174364515379E+04   -0.15931E-02   -0.15934E-02   720   0.328E-01-0.651E-03
CGA:  23    -0.174364624765E+04   -0.10939E-02   -0.11158E-02   720   0.954E-02 0.122E-02
CGA:  24    -0.174364655849E+04   -0.31084E-03   -0.32200E-03   720   0.551E-02 0.450E-03
CGA:  25    -0.174364692575E+04   -0.36726E-03   -0.36986E-03   720   0.904E-02-0.427E-03
CGA:  26    -0.174364753817E+04   -0.61242E-03   -0.62615E-03   720   0.153E-01-0.817E-03
CGA:  27    -0.174364797727E+04   -0.43909E-03   -0.44689E-03   720   0.656E-02 0.135E-03
CGA:  28    -0.174364816829E+04   -0.19103E-03   -0.20440E-03   720   0.350E-02 0.514E-03
CGA:  29    -0.174364828408E+04   -0.11579E-03   -0.12424E-03   720   0.238E-02 0.353E-03
CGA:  30    -0.174364846448E+04   -0.18040E-03   -0.17788E-03   720   0.591E-02 0.197E-03
CGA:  31    -0.174364881474E+04   -0.35026E-03   -0.35006E-03   720   0.377E-02-0.191E-03
SDA:  32    -0.174364893749E+04   -0.12275E-03   -0.10910E-03   720   0.181E-02-0.537E-03
CGA:  33    -0.174364902815E+04   -0.90664E-04   -0.90749E-04   720   0.168E-02 0.198E-04
CGA:  34    -0.174364913672E+04   -0.10857E-03   -0.10625E-03   720   0.702E-03 0.272E-03
CGA:  35    -0.174364920469E+04   -0.67966E-04   -0.96533E-04   720   0.132E-02-0.448E-03
CGA:  36    -0.174364923744E+04   -0.32758E-04   -0.39826E-04   720   0.233E-03 0.253E-03
CGA:  37    -0.174364924731E+04   -0.98644E-05   -0.11550E-04   720   0.174E-03 0.113E-03
CGA:  38    -0.174364927683E+04   -0.29519E-04   -0.42231E-04   720   0.653E-03-0.118E-03
CGA:  39    -0.174364929962E+04   -0.22790E-04   -0.23535E-04   720   0.192E-03 0.284E-04
CGA:  40    -0.174364931211E+04   -0.12491E-04   -0.12416E-04   720   0.140E-03 0.330E-04
CGA:  41    -0.174364920866E+04    0.10345E-03   -0.56952E-04   720   0.462E-02-0.527E-03
CGA:  42    -0.174364929915E+04   -0.90491E-04   -0.11857E-03   720   0.686E-03 0.419E-03
CGA:  43    -0.174364934235E+04   -0.43198E-04   -0.46215E-04   720   0.463E-03 0.658E-04
CGA:  44    -0.174364938667E+04   -0.44323E-04   -0.36472E-04   720   0.299E-03-0.254E-03
CGA:  45    -0.174364938386E+04    0.28059E-05   -0.58657E-05   720   0.550E-04 0.106E-03
  16 F= -.17436494E+04 E0= -.17436253E+04  d E =-.478185E-01  mag=    46.0000
       N       E                     dE             d eps       ncg     rms          ort
SDA:   1    -0.173268614873E+04    0.10963E+02    0.00000E+00   720   0.275E+02 0.000E+00
CGA:   2    -0.173689210494E+04   -0.42060E+01   -0.39679E+01   720   0.481E+02 0.374E+01
CGA:   3    -0.174046227741E+04   -0.35702E+01   -0.33763E+01   720   0.175E+02 0.190E+01
CGA:   4    -0.174132524561E+04   -0.86297E+00   -0.10076E+01   720   0.151E+02-0.258E+00
CGA:   5    -0.174172326327E+04   -0.39802E+00   -0.55057E+00   720   0.158E+02-0.334E+01
CGA:   6    -0.174216194963E+04   -0.43869E+00   -0.32523E+00   720   0.768E+01 0.286E+01
CGA:   7    -0.174240980777E+04   -0.24786E+00   -0.24496E+00   720   0.293E+01 0.952E-01
CGA:   8    -0.174247871334E+04   -0.68906E-01   -0.92518E-01   720   0.262E+01-0.500E+00
CGA:   9    -0.174257014034E+04   -0.91427E-01   -0.95365E-01   720   0.194E+01-0.268E-01
CGA:  10    -0.174263358889E+04   -0.63449E-01   -0.51455E-01   720   0.714E+00 0.328E+00
CGA:  11    -0.174265812721E+04   -0.24538E-01   -0.22788E-01   720   0.495E+00 0.482E-01
CGA:  12    -0.174267353382E+04   -0.15407E-01   -0.15240E-01   720   0.436E+00 0.519E-02
CGA:  13    -0.174269059724E+04   -0.17063E-01   -0.17923E-01   720   0.524E+00-0.115E-01
CGA:  14    -0.174270757307E+04   -0.16976E-01   -0.17817E-01   720   0.350E+00-0.170E-01
CGA:  15    -0.174271620021E+04   -0.86271E-02   -0.79696E-02   720   0.178E+00 0.234E-01
CGA:  16    -0.174272171762E+04   -0.55174E-02   -0.56619E-02   720   0.115E+00 0.221E-02
CGA:  17    -0.174272476482E+04   -0.30472E-02   -0.31787E-02   720   0.812E-01-0.211E-02
CGA:  18    -0.174272817481E+04   -0.34100E-02   -0.33759E-02   720   0.108E+00-0.247E-02
CGA:  19    -0.174273198580E+04   -0.38110E-02   -0.38120E-02   720   0.900E-01-0.161E-02
CGA:  20    -0.174273460795E+04   -0.26222E-02   -0.26603E-02   720   0.651E-01 0.187E-02
CGA:  21    -0.174273640746E+04   -0.17995E-02   -0.18457E-02   720   0.280E-01 0.102E-02
CGA:  22    -0.174273721660E+04   -0.80914E-03   -0.78167E-03   720   0.180E-01-0.155E-02
CGA:  23    -0.174273811321E+04   -0.89661E-03   -0.88791E-03   720   0.277E-01-0.263E-02
CGA:  24    -0.174273893026E+04   -0.81705E-03   -0.81761E-03   720   0.226E-01-0.123E-03
CGA:  25    -0.174273953890E+04   -0.60864E-03   -0.64516E-03   720   0.135E-01 0.147E-02
CGA:  26    -0.174273994142E+04   -0.40252E-03   -0.40635E-03   720   0.714E-02 0.192E-03
CGA:  27    -0.174274022794E+04   -0.28652E-03   -0.26762E-03   720   0.657E-02-0.126E-02
CGA:  28    -0.174274043758E+04   -0.20964E-03   -0.20141E-03   720   0.627E-02-0.585E-03
CGA:  29    -0.174274057857E+04   -0.14099E-03   -0.15437E-03   720   0.426E-02 0.547E-03
CGA:  30    -0.174274070508E+04   -0.12651E-03   -0.13696E-03   720   0.347E-02 0.525E-03
CGA:  31    -0.174274087821E+04   -0.17313E-03   -0.17065E-03   720   0.414E-02-0.552E-03
SDA:  32    -0.174274101657E+04   -0.13836E-03   -0.12601E-03   720   0.392E-02-0.106E-02
CGA:  33    -0.174274111625E+04   -0.99679E-04   -0.11051E-03   720   0.776E-03 0.562E-03
CGA:  34    -0.174274117991E+04   -0.63658E-04   -0.65658E-04   720   0.889E-03-0.725E-04
CGA:  35    -0.174274124011E+04   -0.60206E-04   -0.57693E-04   720   0.104E-02 0.107E-03
CGA:  36    -0.174274130250E+04   -0.62384E-04   -0.61067E-04   720   0.763E-03 0.387E-03
CGA:  37    -0.174274137285E+04   -0.70356E-04   -0.73533E-04   720   0.651E-03-0.151E-03
CGA:  38    -0.174274104942E+04    0.32344E-03   -0.17783E-03   720   0.118E-01-0.184E-02
CGA:  39    -0.174274134543E+04   -0.29602E-03   -0.35268E-03   720   0.239E-02 0.978E-03
CGA:  40    -0.174274146309E+04   -0.11766E-03   -0.12377E-03   720   0.625E-03 0.257E-03
CGA:  41    -0.174274151282E+04   -0.49732E-04   -0.46330E-04   720   0.644E-03-0.168E-03
CGA:  42    -0.174274153493E+04   -0.22105E-04   -0.26333E-04   720   0.582E-03 0.141E-03
CGA:  43    -0.174274157419E+04   -0.39257E-04   -0.40449E-04   720   0.371E-03 0.416E-04
CGA:  44    -0.174274158254E+04   -0.83597E-05   -0.55383E-04   720   0.253E-02-0.834E-03
CGA:  45    -0.174274161649E+04   -0.33942E-04   -0.61317E-04   720   0.306E-03 0.443E-03
CGA:  46    -0.174274162314E+04   -0.66504E-05   -0.12246E-04   720   0.135E-03 0.119E-03
CGA:  47    -0.174274163470E+04   -0.11567E-04   -0.10803E-04   720   0.110E-03-0.303E-04
CGA:  48    -0.174274163598E+04   -0.12794E-05   -0.27550E-05   720   0.979E-04 0.316E-04
  17 F= -.17427416E+04 E0= -.17427145E+04  d E =0.907748E+00  mag=    46.0000
       N       E                     dE             d eps       ncg     rms          ort
SDA:   1    -0.174132171501E+04    0.14199E+01    0.00000E+00   720   0.859E+01 0.000E+00
CGA:   2    -0.174176205882E+04   -0.44034E+00   -0.43867E+00   720   0.913E+01-0.248E+00
CGA:   3    -0.174287139590E+04   -0.11093E+01   -0.11151E+01   720   0.109E+02-0.930E-01
CGA:   4    -0.174318544586E+04   -0.31405E+00   -0.34859E+00   720   0.268E+01-0.912E+00
CGA:   5    -0.174328569650E+04   -0.10025E+00   -0.96334E-01   720   0.129E+01 0.534E-01
CGA:   6    -0.174339694518E+04   -0.11125E+00   -0.11123E+00   720   0.135E+01 0.914E-03
CGA:   7    -0.174345821705E+04   -0.61272E-01   -0.60488E-01   720   0.459E+00-0.936E-02
CGA:   8    -0.174347475243E+04   -0.16535E-01   -0.16812E-01   720   0.147E+00 0.903E-02
CGA:   9    -0.174348492295E+04   -0.10171E-01   -0.10171E-01   720   0.157E+00-0.585E-03
CGA:  10    -0.174349401271E+04   -0.90898E-02   -0.90289E-02   720   0.101E+00-0.103E-02
CGA:  11    -0.174349905919E+04   -0.50465E-02   -0.51074E-02   720   0.443E-01 0.259E-02
CGA:  12    -0.174350200176E+04   -0.29426E-02   -0.29354E-02   720   0.390E-01-0.292E-02
CGA:  13    -0.174350389937E+04   -0.18976E-02   -0.19214E-02   720   0.207E-01 0.113E-02
CGA:  14    -0.174350506180E+04   -0.11624E-02   -0.11639E-02   720   0.161E-01 0.857E-04
CGA:  15    -0.174350635090E+04   -0.12891E-02   -0.13299E-02   720   0.158E-01-0.260E-02
CGA:  16    -0.174350684633E+04   -0.49544E-03   -0.53198E-03   720   0.660E-02 0.125E-02
CGA:  17    -0.174350721016E+04   -0.36382E-03   -0.36880E-03   720   0.517E-02 0.311E-03
CGA:  18    -0.174350757639E+04   -0.36623E-03   -0.37132E-03   720   0.654E-02-0.159E-02
CGA:  19    -0.174350777099E+04   -0.19460E-03   -0.20419E-03   720   0.407E-02 0.468E-03
CGA:  20    -0.174350787644E+04   -0.10545E-03   -0.13272E-03   720   0.222E-02 0.787E-03
CGA:  21    -0.174350803504E+04   -0.15859E-03   -0.15821E-03   720   0.195E-02-0.897E-04
CGA:  22    -0.174350812702E+04   -0.91985E-04   -0.80909E-04   720   0.151E-02-0.572E-03
CGA:  23    -0.174350816301E+04   -0.35982E-04   -0.39243E-04   720   0.113E-02 0.132E-03
CGA:  24    -0.174350818636E+04   -0.23359E-04   -0.33743E-04   720   0.699E-03 0.309E-03
CGA:  25    -0.174350823261E+04   -0.46241E-04   -0.46854E-04   720   0.761E-03 0.954E-04
CGA:  26    -0.174350828081E+04   -0.48200E-04   -0.45861E-04   720   0.758E-03-0.439E-03
CGA:  27    -0.174350829585E+04   -0.15042E-04   -0.22619E-04   720   0.256E-03 0.269E-03
CGA:  28    -0.174350831582E+04   -0.19976E-04   -0.19951E-04   720   0.148E-03 0.310E-04
CGA:  29    -0.174350833760E+04   -0.21772E-04    0.29573E-04   720   0.173E-03 0.132E-04
CGA:  30    -0.174350835749E+04   -0.19898E-04   -0.21137E-04   720   0.446E-03-0.234E-04
CGA:  31    -0.174350837714E+04   -0.19646E-04   -0.19655E-04   720   0.337E-03-0.664E-06
CGA:  32    -0.174350839654E+04   -0.19401E-04   -0.24381E-04   720   0.538E-03-0.377E-03
CGA:  33    -0.174350840643E+04   -0.98896E-05   -0.14392E-04   720   0.122E-03 0.136E-03
  18 F= -.17435084E+04 E0= -.17434832E+04  d E =-.766770E+00  mag=    46.0000
       N       E                     dE             d eps       ncg     rms          ort
SDA:   1    -0.174313242148E+04    0.37598E+00    0.00000E+00   720   0.174E+01 0.000E+00
CGA:   2    -0.174325421841E+04   -0.12180E+00   -0.12268E+00   720   0.281E+01-0.339E-01
CGA:   3    -0.174353677234E+04   -0.28255E+00   -0.28197E+00   720   0.164E+01 0.101E-01
CGA:   4    -0.174360285554E+04   -0.66083E-01   -0.69329E-01   720   0.388E+00-0.277E-02
CGA:   5    -0.174362254723E+04   -0.19692E-01   -0.19692E-01   720   0.335E+00 0.597E-02
CGA:   6    -0.174365467744E+04   -0.32130E-01   -0.32286E-01   720   0.145E+00-0.412E-02
CGA:   7    -0.174366080721E+04   -0.61298E-02   -0.61457E-02   720   0.387E-01-0.191E-02
CGA:   8    -0.174366364335E+04   -0.28361E-02   -0.27903E-02   720   0.344E-01 0.346E-02
CGA:   9    -0.174366628117E+04   -0.26378E-02   -0.26622E-02   720   0.306E-01-0.244E-02
CGA:  10    -0.174366768483E+04   -0.14037E-02   -0.14164E-02   720   0.102E-01 0.102E-02
CGA:  11    -0.174366815673E+04   -0.47190E-03   -0.48637E-03   720   0.538E-02 0.102E-02
CGA:  12    -0.174366883928E+04   -0.68255E-03   -0.10218E-02   720   0.173E-01-0.298E-02
CGA:  13    -0.174366918616E+04   -0.34688E-03   -0.42252E-03   720   0.235E-02 0.178E-02
CGA:  14    -0.174366935046E+04   -0.16430E-03   -0.16431E-03   720   0.179E-02 0.494E-03
CGA:  15    -0.174366950243E+04   -0.15197E-03   -0.16744E-03   720   0.290E-02-0.109E-02
CGA:  16    -0.174366955028E+04   -0.47852E-04   -0.72599E-04   720   0.694E-03 0.630E-03
CGA:  17    -0.174366961165E+04   -0.61370E-04   -0.59941E-04   720   0.868E-03 0.159E-03
CGA:  18    -0.174366967887E+04   -0.67216E-04   -0.10367E-03   720   0.300E-02-0.106E-02
CGA:  19    -0.174366972554E+04   -0.46670E-04   -0.74328E-04   720   0.675E-03 0.703E-03
CGA:  20    -0.174366976639E+04   -0.40849E-04   -0.43066E-04   720   0.482E-03 0.218E-03
CGA:  21    -0.174366980473E+04   -0.38344E-04   -0.52395E-04   720   0.137E-02-0.681E-03
CGA:  22    -0.174366981706E+04   -0.12332E-04   -0.29699E-04   720   0.312E-03 0.420E-03
CGA:  23    -0.174366982615E+04   -0.90871E-05   -0.13620E-04   720   0.264E-03 0.165E-03
CGA:  24    -0.174366986498E+04   -0.38832E-04    0.32880E-04   720   0.397E-03-0.700E-04
CGA:  25    -0.174366989464E+04   -0.29660E-04   -0.28197E-04   720   0.336E-03 0.391E-04
CGA:  26    -0.174366989679E+04   -0.21503E-05   -0.89426E-05   720   0.194E-03 0.183E-03
CGA:  27    -0.174366980366E+04    0.93130E-04   -0.51607E-04   720   0.295E-02-0.542E-03
CGA:  28    -0.174366986738E+04   -0.63715E-04   -0.99725E-04   720   0.956E-03 0.456E-03
CGA:  29    -0.174366995123E+04   -0.83852E-04   -0.77749E-04   720   0.108E-03-0.209E-03
CGA:  30    -0.174366995427E+04   -0.30387E-05   -0.32133E-05   720   0.725E-04 0.211E-05
  19 F= -.17436700E+04 E0= -.17436454E+04  d E =-.161548E+00  mag=    46.0000
       N       E                     dE             d eps       ncg     rms          ort
SDA:   1    -0.174340188210E+04    0.26807E+00    0.00000E+00   720   0.953E+00 0.000E+00
CGA:   2    -0.174346914895E+04   -0.67267E-01   -0.66238E-01   720   0.162E+01 0.785E-02
CGA:   3    -0.174362857565E+04   -0.15943E+00   -0.15946E+00   720   0.912E+00 0.936E-02
CGA:   4    -0.174366307395E+04   -0.34498E-01   -0.36990E-01   720   0.260E+00-0.619E-01
CGA:   5    -0.174367871145E+04   -0.15637E-01   -0.15952E-01   720   0.184E+00 0.578E-02
CGA:   6    -0.174369366979E+04   -0.14958E-01   -0.14936E-01   720   0.979E-01-0.366E-02
CGA:   7    -0.174369770046E+04   -0.40307E-02   -0.41954E-02   720   0.225E-01 0.257E-02
CGA:   8    -0.174369961216E+04   -0.19117E-02   -0.19083E-02   720   0.281E-01-0.354E-03
CGA:   9    -0.174370148698E+04   -0.18748E-02   -0.18698E-02   720   0.110E-01-0.337E-03
CGA:  10    -0.174370193659E+04   -0.44961E-03   -0.48796E-03   720   0.448E-02 0.896E-03
CGA:  11    -0.174370227053E+04   -0.33393E-03   -0.33745E-03   720   0.495E-02 0.202E-03
CGA:  12    -0.174370282018E+04   -0.54966E-03   -0.56562E-03   720   0.225E-02-0.713E-03
CGA:  13    -0.174370288873E+04   -0.68544E-04   -0.87495E-04   720   0.111E-02 0.444E-03
CGA:  14    -0.174370303863E+04   -0.14990E-03   -0.14995E-03   720   0.147E-02 0.246E-05
CGA:  15    -0.174370312325E+04   -0.84621E-04   -0.80336E-04   720   0.668E-03-0.129E-03
CGA:  16    -0.174370317298E+04   -0.49729E-04   -0.49419E-04   720   0.871E-03-0.735E-04
CGA:  17    -0.174370323101E+04   -0.58036E-04   -0.57839E-04   720   0.436E-03-0.210E-04
CGA:  18    -0.174370324994E+04   -0.18930E-04   -0.19795E-04   720   0.185E-03 0.245E-04
CGA:  19    -0.174370326163E+04   -0.11685E-04   -0.12134E-04   720   0.172E-03 0.215E-04
CGA:  20    -0.174370328870E+04   -0.27067E-04   -0.43214E-04   720   0.452E-03-0.113E-03
CGA:  21    -0.174370330279E+04   -0.14090E-04   -0.15900E-04   720   0.817E-04 0.344E-04
CGA:  22    -0.174370330273E+04    0.51856E-07   -0.27965E-05   720   0.512E-04 0.522E-04
CGA:  23    -0.174370326630E+04    0.36429E-04   -0.20674E-04   720   0.207E-02-0.145E-03
CGA:  24    -0.174370332943E+04   -0.63120E-04   -0.62436E-04   720   0.138E-03 0.132E-04
CGA:  25    -0.174370332835E+04    0.10765E-05   -0.35435E-05   720   0.341E-04 0.384E-04
  20 F= -.17437033E+04 E0= -.17436789E+04  d E =-.333741E-01  mag=    46.0000
       N       E                     dE             d eps       ncg     rms          ort
SDA:   1    -0.174369535057E+04    0.79789E-02    0.00000E+00   720   0.542E-01 0.000E+00
CGA:   2    -0.174369758438E+04   -0.22338E-02   -0.19773E-02   720   0.350E-01 0.233E-02
CGA:   3    -0.174370291086E+04   -0.53265E-02   -0.53167E-02   720   0.300E-01 0.627E-03
CGA:   4    -0.174370410980E+04   -0.11989E-02   -0.12278E-02   720   0.112E-01 0.348E-03
CGA:   5    -0.174370513003E+04   -0.10202E-02   -0.97416E-03   720   0.106E-01-0.130E-02
CGA:   6    -0.174370563395E+04   -0.50392E-03   -0.55763E-03   720   0.222E-02 0.872E-03
CGA:   7    -0.174370574163E+04   -0.10768E-03   -0.11458E-03   720   0.875E-03 0.140E-03
CGA:   8    -0.174370585531E+04   -0.11368E-03   -0.11423E-03   720   0.120E-02-0.975E-04
CGA:   9    -0.174370589922E+04   -0.43903E-04   -0.49043E-04   720   0.334E-03 0.733E-04
CGA:  10    -0.174370591140E+04   -0.12186E-04   -0.14584E-04   720   0.130E-03 0.348E-04
CGA:  11    -0.174370591649E+04   -0.50836E-05   -0.78982E-05   720   0.126E-03 0.507E-04
CGA:  12    -0.174370592958E+04   -0.13099E-04   -0.14122E-04   720   0.837E-04 0.380E-04
CGA:  13    -0.174370593623E+04   -0.66401E-05   -0.16252E-04   720   0.692E-03-0.224E-03
CGA:  14    -0.174370593856E+04   -0.23357E-05   -0.16213E-04   720   0.835E-04 0.164E-03
  21 F= -.17437059E+04 E0= -.17436815E+04  d E =-.261021E-02  mag=    46.0000
       N       E                     dE             d eps       ncg     rms          ort
SDA:   1    -0.174367270944E+04    0.33227E-01    0.00000E+00   720   0.135E+00 0.000E+00
CGA:   2    -0.174368306513E+04   -0.10356E-01   -0.10334E-01   720   0.192E+00-0.537E-02
CGA:   3    -0.174369863866E+04   -0.15574E-01   -0.15607E-01   720   0.856E-01 0.348E-02
CGA:   4    -0.174370366294E+04   -0.50243E-02   -0.49991E-02   720   0.382E-01 0.738E-03
CGA:   5    -0.174370614502E+04   -0.24821E-02   -0.24843E-02   720   0.265E-01 0.447E-03
CGA:   6    -0.174370820586E+04   -0.20608E-02   -0.20484E-02   720   0.804E-02-0.918E-03
CGA:   7    -0.174370859718E+04   -0.39132E-03   -0.40404E-03   720   0.241E-02 0.408E-03
CGA:   8    -0.174370885091E+04   -0.25372E-03   -0.24985E-03   720   0.202E-02 0.546E-03
CGA:   9    -0.174370903227E+04   -0.18136E-03   -0.16711E-03   720   0.190E-02-0.590E-03
CGA:  10    -0.174370907854E+04   -0.46277E-04   -0.51280E-04   720   0.683E-03 0.907E-04
CGA:  11    -0.174370908670E+04   -0.81602E-05   -0.20130E-04   720   0.351E-03 0.202E-03
CGA:  12    -0.174370909973E+04   -0.13029E-04   -0.18471E-04   720   0.307E-03 0.124E-03
CGA:  13    -0.174370913049E+04   -0.30760E-04   -0.30458E-04   720   0.512E-03-0.329E-04
CGA:  14    -0.174370914410E+04   -0.13606E-04   -0.14603E-04   720   0.303E-03 0.190E-04
CGA:  15    -0.174370915015E+04   -0.60468E-05   -0.71248E-05   720   0.114E-03 0.192E-04
  22 F= -.17437092E+04 E0= -.17436846E+04  d E =-.321159E-02  mag=    46.0000
       N       E                     dE             d eps       ncg     rms          ort
SDA:   1    -0.174369568257E+04    0.13462E-01    0.00000E+00   720   0.143E+00 0.000E+00
CGA:   2    -0.174370050364E+04   -0.48211E-02   -0.44790E-02   720   0.308E-01 0.637E-02
CGA:   3    -0.174370467639E+04   -0.41728E-02   -0.43856E-02   720   0.717E-01-0.344E-02
CGA:   4    -0.174370768861E+04   -0.30122E-02   -0.30459E-02   720   0.294E-01 0.135E-02
CGA:   5    -0.174370871162E+04   -0.10230E-02   -0.10842E-02   720   0.754E-02 0.276E-02
CGA:   6    -0.174370921928E+04   -0.50766E-03   -0.50459E-03   720   0.103E-01-0.276E-03
CGA:   7    -0.174370981411E+04   -0.59483E-03   -0.58868E-03   720   0.427E-02-0.488E-03
CGA:   8    -0.174370991042E+04   -0.96316E-04   -0.11144E-03   720   0.122E-02 0.333E-03
CGA:   9    -0.174370997268E+04   -0.62263E-04   -0.62991E-04   720   0.116E-02 0.323E-04
CGA:  10    -0.174371006134E+04   -0.88659E-04   -0.94510E-04   720   0.174E-02-0.532E-03
CGA:  11    -0.174371007552E+04   -0.14176E-04   -0.21730E-04   720   0.129E-02 0.166E-03
CGA:  12    -0.174371008505E+04   -0.95300E-05   -0.26035E-04   720   0.441E-03 0.347E-03
CGA:  13    -0.174371008991E+04   -0.48577E-05   -0.11146E-04   720   0.211E-03 0.142E-03
CGA:  14    -0.174371010386E+04   -0.13955E-04   -0.12659E-04   720   0.267E-03-0.785E-04
CGA:  15    -0.174371010940E+04   -0.55386E-05   -0.13782E-04   720   0.110E-02-0.395E-03
CGA:  16    -0.174371013017E+04   -0.20767E-04   -0.32608E-04   720   0.187E-03 0.371E-03
CGA:  17    -0.174371013811E+04   -0.79405E-05   -0.86517E-05   720   0.204E-04 0.278E-04
  23 F= -.17437101E+04 E0= -.17436855E+04  d E =-.987962E-03  mag=    46.0000
       N       E                     dE             d eps       ncg     rms          ort
SDA:   1    -0.174370694804E+04    0.31821E-02    0.00000E+00   720   0.215E-01 0.000E+00
CGA:   2    -0.174370802704E+04   -0.10790E-02   -0.10471E-02   720   0.184E-01-0.337E-02
CGA:   3    -0.174370952775E+04   -0.15007E-02   -0.14650E-02   720   0.114E-01 0.102E-02
CGA:   4    -0.174371037425E+04   -0.84650E-03   -0.84321E-03   720   0.549E-02 0.336E-03
CGA:   5    -0.174371066936E+04   -0.29510E-03   -0.28252E-03   720   0.329E-02-0.119E-02
CGA:   6    -0.174371085581E+04   -0.18646E-03   -0.18068E-03   720   0.126E-02 0.585E-03
CGA:   7    -0.174371090898E+04   -0.53163E-04   -0.55369E-04   720   0.302E-03 0.943E-04
CGA:   8    -0.174371090454E+04    0.44335E-05   -0.78602E-04   720   0.324E-02-0.457E-03
CGA:   9    -0.174371095598E+04   -0.51432E-04   -0.73384E-04   720   0.234E-03 0.474E-03
CGA:  10    -0.174371096352E+04   -0.75420E-05   -0.88425E-05   720   0.684E-04 0.387E-04
  24 F= -.17437110E+04 E0= -.17436864E+04  d E =-.825410E-03  mag=    46.0000
       N       E                     dE             d eps       ncg     rms          ort
SDA:   1    -0.174366894375E+04    0.42012E-01    0.00000E+00   720   0.215E+00 0.000E+00
CGA:   2    -0.174367868706E+04   -0.97433E-02   -0.95616E-02   720   0.175E+00-0.617E-02
CGA:   3    -0.174369675131E+04   -0.18064E-01   -0.18164E-01   720   0.189E+00-0.218E-02
CGA:   4    -0.174370693314E+04   -0.10182E-01   -0.10211E-01   720   0.699E-01 0.490E-03
CGA:   5    -0.174370977055E+04   -0.28374E-02   -0.28369E-02   720   0.207E-01-0.100E-02
CGA:   6    -0.174371183718E+04   -0.20666E-02   -0.19935E-02   720   0.141E-01 0.218E-02
CGA:   7    -0.174371277318E+04   -0.93601E-03   -0.92795E-03   720   0.669E-02-0.132E-02
CGA:   8    -0.174371299417E+04   -0.22099E-03   -0.24183E-03   720   0.148E-02 0.841E-03
CGA:   9    -0.174371310383E+04   -0.10966E-03   -0.10908E-03   720   0.142E-02 0.454E-03
CGA:  10    -0.174371326043E+04   -0.15661E-03   -0.17725E-03   720   0.204E-02-0.663E-03
CGA:  11    -0.174371327956E+04   -0.19128E-04   -0.27772E-04   720   0.117E-02 0.213E-03
CGA:  12    -0.174371329218E+04   -0.12620E-04   -0.24446E-04   720   0.386E-03 0.265E-03
CGA:  13    -0.174371330609E+04   -0.13909E-04   -0.15182E-04   720   0.329E-03 0.430E-04
CGA:  14    -0.174371331562E+04   -0.95335E-05   -0.40586E-04   720   0.175E-02-0.611E-03
CGA:  15    -0.174371335416E+04   -0.38533E-04   -0.53587E-04   720   0.263E-03 0.479E-03
CGA:  16    -0.174371337017E+04   -0.16016E-04   -0.15346E-04   720   0.587E-04-0.428E-04
CGA:  17    -0.174371337769E+04   -0.75179E-05    0.55187E-05   720   0.491E-04 0.285E-04
  25 F= -.17437134E+04 E0= -.17436888E+04  d E =-.241417E-02  mag=    46.0000
       N       E                     dE             d eps       ncg     rms          ort
SDA:   1    -0.174356539607E+04    0.14797E+00    0.00000E+00   720   0.421E+00 0.000E+00
CGA:   2    -0.174363541034E+04   -0.70014E-01   -0.70066E-01   720   0.101E+01-0.108E-02
CGA:   3    -0.174368017400E+04   -0.44764E-01   -0.46334E-01   720   0.361E+00-0.176E-02
CGA:   4    -0.174369688067E+04   -0.16707E-01   -0.16426E-01   720   0.147E+00 0.897E-04
CGA:   5    -0.174370681320E+04   -0.99325E-02   -0.99287E-02   720   0.108E+00 0.390E-02
CGA:   6    -0.174371425746E+04   -0.74443E-02   -0.74500E-02   720   0.259E-01-0.292E-02
CGA:   7    -0.174371541775E+04   -0.11603E-02   -0.11847E-02   720   0.114E-01 0.150E-02
CGA:   8    -0.174371635075E+04   -0.93300E-03   -0.91483E-03   720   0.108E-01 0.149E-02
CGA:   9    -0.174371704728E+04   -0.69653E-03   -0.69005E-03   720   0.516E-02-0.825E-03
CGA:  10    -0.174371725610E+04   -0.20882E-03   -0.21228E-03   720   0.125E-02 0.204E-03
CGA:  11    -0.174371737657E+04   -0.12047E-03   -0.11468E-03   720   0.130E-02 0.228E-03
CGA:  12    -0.174371752217E+04   -0.14559E-03   -0.19362E-03   720   0.245E-02-0.787E-03
CGA:  13    -0.174371756727E+04   -0.45102E-04   -0.63132E-04   720   0.270E-03 0.441E-03
CGA:  14    -0.174371758581E+04   -0.18537E-04   -0.18396E-04   720   0.304E-03-0.179E-04
CGA:  15    -0.174371735130E+04    0.23451E-03   -0.12820E-03   720   0.723E-02-0.101E-02
CGA:  16    -0.174371751619E+04   -0.16489E-03   -0.23008E-03   720   0.107E-02 0.876E-03
CGA:  17    -0.174371761041E+04   -0.94220E-04   -0.81481E-04   720   0.911E-03-0.269E-03
CGA:  18    -0.174371767296E+04   -0.62554E-04   -0.62039E-04   720   0.507E-03-0.248E-04
CGA:  19    -0.174371768784E+04   -0.14876E-04   -0.17908E-04   720   0.939E-04 0.399E-04
CGA:  20    -0.174371769644E+04   -0.85990E-05   -0.76246E-05   720   0.109E-03-0.300E-04
  26 F= -.17437177E+04 E0= -.17436931E+04  d E =-.431875E-02  mag=    46.0000
       N       E                     dE             d eps       ncg     rms          ort
SDA:   1    -0.174292891824E+04    0.78877E+00    0.00000E+00   720   0.222E+01 0.000E+00
CGA:   2    -0.174323977884E+04   -0.31086E+00   -0.30657E+00   720   0.555E+01 0.807E-01
CGA:   3    -0.174356718498E+04   -0.32741E+00   -0.32354E+00   720   0.101E+01 0.398E-01
CGA:   4    -0.174363495651E+04   -0.67772E-01   -0.63304E-01   720   0.755E+00 0.150E-01
CGA:   5    -0.174367908287E+04   -0.44126E-01   -0.45866E-01   720   0.619E+00-0.483E-02
CGA:   6    -0.174370800708E+04   -0.28924E-01   -0.30123E-01   720   0.125E+00-0.498E-02
CGA:   7    -0.174371473303E+04   -0.67260E-02   -0.69022E-02   720   0.626E-01 0.403E-03
CGA:   8    -0.174371941286E+04   -0.46798E-02   -0.47252E-02   720   0.638E-01 0.196E-02
CGA:   9    -0.174372300214E+04   -0.35893E-02   -0.35013E-02   720   0.136E-01-0.119E-02
CGA:  10    -0.174372360200E+04   -0.59986E-03   -0.60665E-03   720   0.906E-02 0.308E-03
CGA:  11    -0.174372450476E+04   -0.90276E-03   -0.90043E-03   720   0.753E-02 0.265E-03
CGA:  12    -0.174372514133E+04   -0.63657E-03   -0.62737E-03   720   0.452E-02-0.133E-02
CGA:  13    -0.174372522653E+04   -0.85197E-04   -0.12597E-03   720   0.138E-02 0.756E-03
CGA:  14    -0.174372530777E+04   -0.81245E-04   -0.91514E-04   720   0.158E-02 0.365E-03
CGA:  15    -0.174372551682E+04   -0.20904E-03   -0.23860E-03   720   0.506E-02-0.846E-03
CGA:  16    -0.174372560554E+04   -0.88729E-04   -0.12861E-03   720   0.530E-03 0.775E-03
CGA:  17    -0.174372563723E+04   -0.31688E-04   -0.31326E-04   720   0.395E-03-0.975E-05
CGA:  18    -0.174372570124E+04   -0.64008E-04    0.78271E-03   720   0.668E-03 0.106E-03
CGA:  19    -0.174372576158E+04   -0.60336E-04   -0.61434E-04   720   0.374E-03 0.131E-03
CGA:  20    -0.174372578795E+04   -0.26377E-04   -0.27893E-04   720   0.226E-03 0.831E-04
CGA:  21    -0.174372583530E+04   -0.47349E-04    0.14080E-03   720   0.323E-03 0.375E-04
CGA:  22    -0.174372585216E+04   -0.16855E-04   -0.20641E-04   720   0.157E-03 0.152E-03
CGA:  23    -0.174372585421E+04   -0.20533E-05   -0.73358E-05   720   0.737E-04 0.113E-03
  27 F= -.17437259E+04 E0= -.17437012E+04  d E =-.815777E-02  mag=    46.0000
       N       E                     dE             d eps       ncg     rms          ort
SDA:   1    -0.173937482969E+04    0.43510E+01    0.00000E+00   720   0.116E+02 0.000E+00
CGA:   2    -0.174127966156E+04   -0.19048E+01   -0.18209E+01   720   0.331E+02 0.120E+01
CGA:   3    -0.174272379718E+04   -0.14441E+01   -0.17796E+01   720   0.114E+02-0.462E+00
CGA:   4    -0.174317072991E+04   -0.44693E+00   -0.44132E+00   720   0.437E+01-0.621E+00
CGA:   5    -0.174338870134E+04   -0.21797E+00   -0.22370E+00   720   0.395E+01-0.273E-02
CGA:   6    -0.174355099322E+04   -0.16229E+00   -0.16905E+00   720   0.318E+01-0.483E-01
CGA:   7    -0.174364930530E+04   -0.98312E-01   -0.94231E-01   720   0.734E+00 0.104E+00
CGA:   8    -0.174367611008E+04   -0.26805E-01   -0.26192E-01   720   0.409E+00 0.451E-02
CGA:   9    -0.174369832773E+04   -0.22218E-01   -0.22275E-01   720   0.316E+00 0.696E-03
CGA:  10    -0.174371463638E+04   -0.16309E-01   -0.16519E-01   720   0.270E+00 0.796E-02
CGA:  11    -0.174372483905E+04   -0.10203E-01   -0.10152E-01   720   0.860E-01-0.105E-02
CGA:  12    -0.174372814207E+04   -0.33030E-02   -0.31867E-02   720   0.509E-01-0.537E-02
CGA:  13    -0.174373080770E+04   -0.26656E-02   -0.26774E-02   720   0.545E-01 0.807E-03
CGA:  14    -0.174373348229E+04   -0.26746E-02   -0.27180E-02   720   0.337E-01 0.329E-02
CGA:  15    -0.174373513646E+04   -0.16542E-02   -0.15911E-02   720   0.187E-01-0.325E-02
CGA:  16    -0.174373597299E+04   -0.83653E-03   -0.80745E-03   720   0.143E-01-0.212E-02
[...]
SDA:   1    -0.174095459694E+04    0.31015E+01    0.00000E+00   720   0.896E+01 0.000E+00
CGA:   2    -0.174207761930E+04   -0.11230E+01   -0.11359E+01   720   0.255E+02-0.109E+00
CGA:   3    -0.174322693301E+04   -0.11493E+01   -0.11504E+01   720   0.624E+01 0.146E+00
CGA:   4    -0.174352775980E+04   -0.30083E+00   -0.30150E+00   720   0.438E+01-0.862E+00
CGA:   5    -0.174373514568E+04   -0.20739E+00   -0.20917E+00   720   0.506E+01-0.155E+00
CGA:   6    -0.174390826798E+04   -0.17312E+00   -0.17794E+00   720   0.165E+01 0.439E-01
CGA:   7    -0.174395866299E+04   -0.50395E-01   -0.49410E-01   720   0.446E+00 0.342E-01
CGA:   8    -0.174398299975E+04   -0.24337E-01   -0.24596E-01   720   0.421E+00-0.181E-01
CGA:   9    -0.174400265220E+04   -0.19652E-01   -0.19648E-01   720   0.427E+00-0.430E-02
CGA:  10    -0.174401892417E+04   -0.16272E-01   -0.16425E-01   720   0.159E+00 0.189E-02
CGA:  11    -0.174402314932E+04   -0.42252E-02   -0.42231E-02   720   0.405E-01 0.399E-02
CGA:  12    -0.174402550651E+04   -0.23572E-02   -0.23542E-02   720   0.623E-01 0.252E-03
CGA:  13    -0.174402915457E+04   -0.36481E-02   -0.36343E-02   720   0.580E-01 0.116E-02
CGA:  14    -0.174403134351E+04   -0.21889E-02   -0.21861E-02   720   0.226E-01-0.642E-03
CGA:  15    -0.174403208722E+04   -0.74371E-03   -0.71543E-03   720   0.881E-02-0.215E-02
CGA:  16    -0.174403262266E+04   -0.53544E-03   -0.51507E-03   720   0.112E-01 0.105E-02
CGA:  17    -0.174403324600E+04   -0.62333E-03   -0.61707E-03   720   0.852E-02 0.217E-02
CGA:  18    -0.174403392624E+04   -0.68024E-03   -0.73497E-03   720   0.937E-02-0.216E-02
CGA:  19    -0.174403419231E+04   -0.26607E-03   -0.26877E-03   720   0.525E-02 0.270E-03
CGA:  20    -0.174403433509E+04   -0.14278E-03   -0.16307E-03   720   0.256E-02 0.116E-02
CGA:  21    -0.174403446083E+04   -0.12574E-03   -0.12731E-03   720   0.238E-02 0.263E-03
CGA:  22    -0.174403433041E+04    0.13042E-03   -0.56956E-03   720   0.263E-01-0.409E-02
CGA:  23    -0.174403492962E+04   -0.59922E-03   -0.64408E-03   720   0.255E-02 0.185E-02
CGA:  24    -0.174403507125E+04   -0.14163E-03   -0.14154E-03   720   0.109E-02-0.309E-04
CGA:  25    -0.174403510402E+04   -0.32772E-04   -0.38961E-04   720   0.599E-03 0.362E-03
CGA:  26    -0.174403516200E+04   -0.57981E-04   -0.56338E-04   720   0.562E-03 0.905E-04
CGA:  27    -0.174403520091E+04   -0.38905E-04   -0.41243E-04   720   0.807E-03-0.226E-03
CGA:  28    -0.174403520317E+04   -0.22572E-05   -0.96221E-05   720   0.665E-03 0.217E-03
CGA:  29    -0.174403520691E+04   -0.37457E-05   -0.14736E-04   720   0.296E-03 0.317E-03
CGA:  30    -0.174403521896E+04   -0.12050E-04   -0.13732E-04   720   0.326E-03 0.896E-04
CGA:  31    -0.174403521658E+04    0.23810E-05   -0.48916E-04   720   0.233E-02-0.779E-03
CGA:  32    -0.174403525478E+04   -0.38197E-04   -0.57760E-04   720   0.445E-03 0.688E-03
CGA:  33    -0.174403528365E+04   -0.28870E-04   -0.28646E-04   720   0.224E-03-0.136E-03
CGA:  34    -0.174403531029E+04   -0.26641E-04    0.59770E-05   720   0.194E-03-0.818E-05
CGA:  35    -0.174403531963E+04   -0.93349E-05   -0.93625E-05   720   0.135E-03 0.256E-04
  91 F= -.17440353E+04 E0= -.17440095E+04  d E =0.208124E-01  mag=    46.0000
       N       E                     dE             d eps       ncg     rms          ort
SDA:   1    -0.174191161195E+04    0.21237E+01    0.00000E+00   720   0.651E+01 0.000E+00
CGA:   2    -0.174257019693E+04   -0.65858E+00   -0.70297E+00   720   0.196E+02-0.733E+00
CGA:   3    -0.174346391033E+04   -0.89371E+00   -0.89343E+00   720   0.523E+01-0.144E+00
CGA:   4    -0.174365429459E+04   -0.19038E+00   -0.19239E+00   720   0.283E+01-0.304E-01
CGA:   5    -0.174382694464E+04   -0.17265E+00   -0.17527E+00   720   0.409E+01-0.164E+00
CGA:   6    -0.174396185816E+04   -0.13491E+00   -0.13583E+00   720   0.119E+01-0.164E-01
CGA:   7    -0.174399812626E+04   -0.36268E-01   -0.36071E-01   720   0.328E+00-0.479E-02
CGA:   8    -0.174401473198E+04   -0.16606E-01   -0.16600E-01   720   0.375E+00 0.157E-01
CGA:   9    -0.174403427063E+04   -0.19539E-01   -0.19544E-01   720   0.206E+00 0.155E-02
CGA:  10    -0.174404437433E+04   -0.10104E-01   -0.10095E-01   720   0.105E+00-0.646E-02
CGA:  11    -0.174404691733E+04   -0.25430E-02   -0.26868E-02   720   0.288E-01 0.701E-02
CGA:  12    -0.174404867557E+04   -0.17582E-02   -0.17377E-02   720   0.420E-01 0.265E-02
CGA:  13    -0.174405169160E+04   -0.30160E-02   -0.31053E-02   720   0.481E-01-0.503E-02
CGA:  14    -0.174405288433E+04   -0.11927E-02   -0.12330E-02   720   0.141E-01 0.210E-02
CGA:  15    -0.174405322623E+04   -0.34190E-03   -0.38605E-03   720   0.668E-02 0.182E-02
CGA:  16    -0.174405359212E+04   -0.36589E-03   -0.36631E-03   720   0.893E-02-0.112E-02
CGA:  17    -0.174405409137E+04   -0.49925E-03   -0.75240E-03   720   0.290E-01-0.479E-02
CGA:  18    -0.174405468584E+04   -0.59446E-03   -0.69285E-03   720   0.471E-02 0.365E-02
CGA:  19    -0.174405491897E+04   -0.23313E-03   -0.23122E-03   720   0.130E-02-0.314E-03
CGA:  20    -0.174405503917E+04   -0.12020E-03    0.56450E-02   720   0.119E-02 0.722E-03
CGA:  21    -0.174405506919E+04   -0.30025E-04   -0.38787E-04   720   0.698E-03 0.523E-03
CGA:  22    -0.174405519508E+04   -0.12589E-03   -0.13971E-03   720   0.247E-02-0.151E-03
CGA:  23    -0.174405529034E+04   -0.95255E-04   -0.95336E-04   720   0.378E-02 0.215E-04
CGA:  24    -0.174405540463E+04   -0.11429E-03   -0.12026E-03   720   0.170E-02 0.282E-03
CGA:  25    -0.174405545742E+04   -0.52786E-04   -0.52448E-04   720   0.682E-03-0.261E-04
CGA:  26    -0.174405546532E+04   -0.79053E-05   -0.82774E-04   720   0.361E-02-0.102E-02
CGA:  27    -0.174405557743E+04   -0.11211E-03   -0.12409E-03   720   0.783E-03 0.654E-03
CGA:  28    -0.174405563234E+04   -0.54913E-04   -0.70079E-04   720   0.141E-02-0.666E-03
CGA:  29    -0.174405564376E+04   -0.11412E-04   -0.28832E-04   720   0.374E-03 0.509E-03
CGA:  30    -0.174405565876E+04   -0.15005E-04   -0.17212E-04   720   0.232E-03 0.116E-03
CGA:  31    -0.174405569966E+04   -0.40899E-04    0.25917E-04   720   0.353E-03-0.489E-04
CGA:  32    -0.174405542830E+04    0.27136E-03   -0.14677E-03   720   0.607E-02-0.133E-02
CGA:  33    -0.174405554346E+04   -0.11516E-03   -0.17162E-03   720   0.145E-02 0.102E-02
CGA:  34    -0.174405563384E+04   -0.90373E-04   -0.86847E-04   720   0.631E-03-0.405E-04
CGA:  35    -0.174405568144E+04   -0.47600E-04   -0.48513E-04   720   0.933E-03 0.909E-04
CGA:  36    -0.174405574475E+04   -0.63316E-04   -0.65802E-04   720   0.890E-04 0.902E-04
CGA:  37    -0.174405576694E+04   -0.22190E-04    0.13973E-04   720   0.335E-03-0.924E-04
CGA:  38    -0.174405576119E+04    0.57490E-05   -0.44657E-05   720   0.661E-04 0.138E-03
  92 F= -.17440558E+04 E0= -.17440300E+04  d E =-.204416E-01  mag=    46.0000
       N       E                     dE             d eps       ncg     rms          ort
SDA:   1    -0.174404460668E+04    0.11160E-01    0.00000E+00   720   0.574E-01 0.000E+00
CGA:   2    -0.174404733153E+04   -0.27248E-02   -0.26276E-02   720   0.493E-01-0.358E-02
CGA:   3    -0.174405104314E+04   -0.37116E-02   -0.37038E-02   720   0.374E-01 0.360E-02
CGA:   4    -0.174405331579E+04   -0.22726E-02   -0.22069E-02   720   0.231E-01-0.315E-02
CGA:   5    -0.174405438188E+04   -0.10661E-02   -0.10803E-02   720   0.859E-02 0.578E-03
CGA:   6    -0.174405487070E+04   -0.48882E-03   -0.51232E-03   720   0.497E-02 0.139E-02
CGA:   7    -0.174405534730E+04   -0.47660E-03   -0.49356E-03   720   0.478E-02-0.161E-02
CGA:   8    -0.174405541141E+04   -0.64116E-04   -0.90050E-04   720   0.191E-02 0.551E-03
CGA:   9    -0.174405544305E+04   -0.31637E-04   -0.54695E-04   720   0.879E-03 0.498E-03
CGA:  10    -0.174405548395E+04   -0.40897E-04   -0.41478E-04   720   0.580E-03 0.212E-04
CGA:  11    -0.174405552539E+04   -0.41449E-04   -0.41717E-04   720   0.113E-02-0.214E-03
CGA:  12    -0.174405554019E+04   -0.14793E-04   -0.17618E-04   720   0.918E-03 0.630E-04
CGA:  13    -0.174405555172E+04   -0.11528E-04   -0.18605E-04   720   0.357E-03 0.149E-03
CGA:  14    -0.174405555874E+04   -0.70211E-05   -0.89764E-05   720   0.167E-03 0.475E-04
  93 F= -.17440556E+04 E0= -.17440298E+04  d E =0.202457E-03  mag=    46.0000
       N       E                     dE             d eps       ncg     rms          ort
SDA:   1    -0.174404948478E+04    0.60669E-02    0.00000E+00   720   0.116E+00 0.000E+00
CGA:   2    -0.174405268895E+04   -0.32042E-02   -0.30422E-02   720   0.182E-01-0.182E-02
CGA:   3    -0.174405335876E+04   -0.66982E-03   -0.72794E-03   720   0.883E-02 0.326E-02
CGA:   4    -0.174405447101E+04   -0.11122E-02   -0.11620E-02   720   0.148E-01-0.928E-03
CGA:   5    -0.174405511967E+04   -0.64866E-03   -0.63542E-03   720   0.731E-02-0.108E-02
CGA:   6    -0.174405526919E+04   -0.14951E-03   -0.19606E-03   720   0.278E-02 0.152E-02
CGA:   7    -0.174405538808E+04   -0.11889E-03   -0.13355E-03   720   0.236E-02 0.774E-03
CGA:   8    -0.174405560791E+04   -0.21984E-03   -0.29768E-03   720   0.515E-02-0.191E-02
CGA:   9    -0.174405567859E+04   -0.70672E-04   -0.10772E-03   720   0.678E-03 0.951E-03
CGA:  10    -0.174405571272E+04   -0.34131E-04   -0.34436E-04   720   0.357E-03 0.215E-04
CGA:  11    -0.174405486090E+04    0.85182E-03   -0.46830E-03   720   0.363E-01-0.314E-02
CGA:  12    -0.174405554235E+04   -0.68145E-03   -0.81637E-03   720   0.337E-02 0.217E-02
CGA:  13    -0.174405571211E+04   -0.16976E-03   -0.15971E-03   720   0.745E-03-0.729E-04
CGA:  14    -0.174405573489E+04   -0.22773E-04   -0.24699E-04   720   0.244E-03 0.281E-04
CGA:  15    -0.174405575402E+04   -0.19138E-04   -0.20107E-04   720   0.169E-03 0.666E-04
CGA:  16    -0.174405577418E+04   -0.20156E-04   -0.19856E-04   720   0.991E-03-0.356E-03
CGA:  17    -0.174405577319E+04    0.98874E-06   -0.16793E-04   720   0.753E-04 0.233E-03
  94 F= -.17440558E+04 E0= -.17440300E+04  d E =-.214454E-03  mag=    46.0000
       N       E                     dE             d eps       ncg     rms          ort
SDA:   1    -0.174404535936E+04    0.10415E-01    0.00000E+00   720   0.418E-01 0.000E+00
CGA:   2    -0.174404802131E+04   -0.26620E-02   -0.26587E-02   720   0.487E-01-0.706E-03
CGA:   3    -0.174405212495E+04   -0.41036E-02   -0.41014E-02   720   0.254E-01 0.178E-02
CGA:   4    -0.174405400124E+04   -0.18763E-02   -0.18325E-02   720   0.197E-01-0.293E-02
CGA:   5    -0.174405455778E+04   -0.55654E-03   -0.66621E-03   720   0.776E-02 0.258E-02
CGA:   6    -0.174405497905E+04   -0.42126E-03   -0.44736E-03   720   0.483E-02 0.885E-03
CGA:   7    -0.174405537419E+04   -0.39515E-03   -0.37979E-03   720   0.419E-02-0.169E-02
CGA:   8    -0.174405541168E+04   -0.37490E-04   -0.62986E-04   720   0.184E-02 0.454E-03
CGA:   9    -0.174405542606E+04   -0.14382E-04   -0.44359E-04   720   0.103E-02 0.558E-03
CGA:  10    -0.174405546035E+04   -0.34288E-04   -0.41671E-04   720   0.577E-03 0.190E-03
CGA:  11    -0.174405550880E+04   -0.48450E-04   -0.43140E-04   720   0.171E-02-0.621E-03
CGA:  12    -0.174405552455E+04   -0.15743E-04   -0.36086E-04   720   0.284E-03 0.404E-03
CGA:  13    -0.174405554444E+04   -0.19893E-04   -0.18592E-04   720   0.232E-03-0.821E-04
CGA:  14    -0.174405557510E+04   -0.30664E-04    0.15273E-04   720   0.573E-03-0.215E-03
CGA:  15    -0.174405557058E+04    0.45235E-05   -0.95871E-05   720   0.175E-03 0.276E-03
  95 F= -.17440556E+04 E0= -.17440298E+04  d E =0.202611E-03  mag=    46.0000
       N       E                     dE             d eps       ncg     rms          ort
SDA:   1    -0.174402872426E+04    0.26851E-01    0.00000E+00   720   0.100E+00 0.000E+00
CGA:   2    -0.174403591221E+04   -0.71879E-02   -0.71138E-02   720   0.119E+00 0.750E-02
CGA:   3    -0.174404411583E+04   -0.82036E-02   -0.82099E-02   720   0.122E+00-0.854E-02
CGA:   4    -0.174405180346E+04   -0.76876E-02   -0.76640E-02   720   0.279E-01 0.581E-02
CGA:   5    -0.174405332417E+04   -0.15207E-02   -0.14953E-02   720   0.158E-01-0.147E-02
CGA:   6    -0.174405402384E+04   -0.69967E-03   -0.73561E-03   720   0.876E-02 0.264E-02
CGA:   7    -0.174405490268E+04   -0.87884E-03   -0.91956E-03   720   0.510E-02-0.150E-02
CGA:   8    -0.174405498485E+04   -0.82177E-04   -0.10965E-03   720   0.130E-02 0.710E-03
CGA:   9    -0.174405502128E+04   -0.36429E-04   -0.50207E-04   720   0.106E-02 0.496E-03
CGA:  10    -0.174405511890E+04   -0.97613E-04   -0.97986E-04   720   0.108E-02-0.547E-04
CGA:  11    -0.174405518473E+04   -0.65839E-04   -0.70816E-04   720   0.122E-02-0.586E-03
CGA:  12    -0.174405521997E+04   -0.35230E-04   -0.39784E-04   720   0.224E-03 0.162E-03
CGA:  13    -0.174405523471E+04   -0.14742E-04   -0.14766E-04   720   0.117E-03 0.155E-04
CGA:  14    -0.174405525029E+04   -0.15578E-04    0.77797E-04   720   0.807E-04 0.582E-04
CGA:  15    -0.174405525390E+04   -0.36164E-05   -0.48386E-05   720   0.306E-04 0.623E-04
  96 F= -.17440553E+04 E0= -.17440295E+04  d E =0.316677E-03  mag=    46.0000
       N       E                     dE             d eps       ncg     rms          ort
SDA:   1    -0.174374438432E+04    0.31087E+00    0.00000E+00   720   0.848E+00 0.000E+00
CGA:   2    -0.174386622942E+04   -0.12185E+00   -0.12087E+00   720   0.244E+01 0.148E-01
CGA:   3    -0.174399096851E+04   -0.12474E+00   -0.12460E+00   720   0.421E+00 0.165E-01
CGA:   4    -0.174401356000E+04   -0.22591E-01   -0.22532E-01   720   0.404E+00-0.101E-01
CGA:   5    -0.174404079391E+04   -0.27234E-01   -0.27166E-01   720   0.132E+00 0.780E-02
CGA:   6    -0.174404702995E+04   -0.62360E-02   -0.62966E-02   720   0.562E-01 0.200E-02
CGA:   7    -0.174405004625E+04   -0.30163E-02   -0.30068E-02   720   0.279E-01-0.131E-02
CGA:   8    -0.174405262042E+04   -0.25742E-02   -0.25659E-02   720   0.203E-01 0.250E-03
CGA:   9    -0.174405355210E+04   -0.93168E-03   -0.93458E-03   720   0.477E-02 0.422E-04
CGA:  10    -0.174405377768E+04   -0.22557E-03   -0.23312E-03   720   0.350E-02 0.649E-03
CGA:  11    -0.174405411365E+04   -0.33597E-03   -0.69041E-03   720   0.178E-01-0.313E-02
CGA:  12    -0.174405438291E+04   -0.26926E-03   -0.35750E-03   720   0.127E-02 0.201E-02
CGA:  13    -0.174405442758E+04   -0.44675E-04   -0.51490E-04   720   0.655E-03 0.259E-03
CGA:  14    -0.174405448530E+04   -0.57716E-04   -0.79244E-04   720   0.256E-02-0.558E-03
CGA:  15    -0.174405452064E+04   -0.35340E-04   -0.57691E-04   720   0.460E-03 0.544E-03
CGA:  16    -0.174405454908E+04   -0.28439E-04   -0.27715E-04   720   0.285E-03-0.602E-04
CGA:  17    -0.174405421373E+04    0.33535E-03   -0.18061E-03   720   0.218E-01-0.132E-02
CGA:  18    -0.174405458369E+04   -0.36996E-03   -0.45652E-03   720   0.134E-02 0.120E-02
CGA:  19    -0.174405466806E+04   -0.84366E-04   -0.67114E-04   720   0.303E-03-0.281E-03
CGA:  20    -0.174405467164E+04   -0.35871E-05   -0.65981E-05   720   0.102E-03 0.383E-04
  97 F= -.17440547E+04 E0= -.17440289E+04  d E =0.582259E-03  mag=    46.0000
       N       E                     dE             d eps       ncg     rms          ort
SDA:   1    -0.174401794473E+04    0.36723E-01    0.00000E+00   720   0.163E+00 0.000E+00
CGA:   2    -0.174402650255E+04   -0.85578E-02   -0.89156E-02   720   0.170E+00 0.340E-02
CGA:   3    -0.174404224224E+04   -0.15740E-01   -0.15723E-01   720   0.104E+00-0.411E-02
CGA:   4    -0.174404772140E+04   -0.54792E-02   -0.56574E-02   720   0.530E-01 0.218E-02
CGA:   5    -0.174405048328E+04   -0.27619E-02   -0.26328E-02   720   0.391E-01-0.247E-02
CGA:   6    -0.174405316895E+04   -0.26857E-02   -0.27189E-02   720   0.150E-01 0.193E-02
CGA:   7    -0.174405397517E+04   -0.80622E-03   -0.75634E-03   720   0.452E-02-0.148E-02
CGA:   8    -0.174405424393E+04   -0.26876E-03   -0.27904E-03   720   0.348E-02 0.542E-03
CGA:   9    -0.174405449305E+04   -0.24911E-03   -0.24925E-03   720   0.188E-02 0.818E-05
CGA:  10    -0.174405455413E+04   -0.61089E-04   -0.75096E-04   720   0.530E-03 0.306E-03
CGA:  11    -0.174405306740E+04    0.14867E-02   -0.81002E-03   720   0.738E-01-0.404E-02
CGA:  12    -0.174405437104E+04   -0.13036E-02   -0.15475E-02   720   0.378E-02 0.544E-02
CGA:  13    -0.174405449327E+04   -0.12223E-03   -0.14259E-03   720   0.115E-02 0.289E-03
CGA:  14    -0.174405460139E+04   -0.10812E-03   -0.87969E-04   720   0.165E-02-0.298E-03
CGA:  15    -0.174405465548E+04   -0.54096E-04   -0.61061E-04   720   0.127E-02 0.797E-04
CGA:  16    -0.174405469718E+04   -0.41692E-04   -0.45035E-04   720   0.346E-03 0.335E-04
CGA:  17    -0.174405472148E+04   -0.24305E-04   -0.13819E-04   720   0.139E-03-0.119E-03
CGA:  18    -0.174405471969E+04    0.17947E-05   -0.23408E-05   720   0.934E-04 0.425E-04
  98 F= -.17440547E+04 E0= -.17440289E+04  d E =-.480423E-04  mag=    46.0000
       N       E                     dE             d eps       ncg     rms          ort
SDA:   1    -0.174400836036E+04    0.46361E-01    0.00000E+00   720   0.272E+00 0.000E+00
CGA:   2    -0.174401609002E+04   -0.77297E-02   -0.79685E-02   720   0.138E+00 0.123E-01
CGA:   3    -0.174404491041E+04   -0.28820E-01   -0.29101E-01   720   0.146E+00-0.308E-02
CGA:   4    -0.174404946365E+04   -0.45532E-02   -0.46619E-02   720   0.377E-01-0.229E-02
CGA:   5    -0.174405211854E+04   -0.26549E-02   -0.27322E-02   720   0.351E-01 0.267E-02
CGA:   6    -0.174405422677E+04   -0.21082E-02   -0.19505E-02   720   0.210E-01-0.333E-02
CGA:   7    -0.174405493983E+04   -0.71307E-03   -0.75638E-03   720   0.403E-02 0.460E-03
CGA:   8    -0.174405513101E+04   -0.19118E-03   -0.22024E-03   720   0.282E-02 0.634E-03
CGA:   9    -0.174405549747E+04   -0.36646E-03   -0.38889E-03   720   0.657E-02-0.113E-02
CGA:  10    -0.174405554642E+04   -0.48946E-04   -0.70017E-04   720   0.265E-02 0.251E-03
CGA:  11    -0.174405555240E+04   -0.59871E-05   -0.34705E-04   720   0.721E-03 0.366E-03
CGA:  12    -0.174405555277E+04   -0.37031E-06   -0.14103E-04   720   0.583E-03 0.188E-03
CGA:  13    -0.174405557563E+04   -0.22858E-04   -0.27328E-04   720   0.115E-02 0.891E-04
CGA:  14    -0.174405563360E+04   -0.57971E-04   -0.48269E-04   720   0.140E-02-0.198E-03
CGA:  15    -0.174405565647E+04   -0.22865E-04   -0.18242E-04   720   0.740E-03-0.765E-04
CGA:  16    -0.174405566139E+04   -0.49231E-05   -0.85179E-05   720   0.330E-03 0.487E-04
  99 F= -.17440557E+04 E0= -.17440299E+04  d E =-.941707E-03  mag=    46.0000
       N       E                     dE             d eps       ncg     rms          ort
SDA:   1    -0.174404210041E+04    0.13556E-01    0.00000E+00   720   0.176E+00 0.000E+00
CGA:   2    -0.174404737943E+04   -0.52790E-02   -0.54436E-02   720   0.395E-01-0.412E-02
CGA:   3    -0.174405069718E+04   -0.33178E-02   -0.33301E-02   720   0.359E-01-0.561E-03
CGA:   4    -0.174405333375E+04   -0.26366E-02   -0.26320E-02   720   0.231E-01 0.189E-02
CGA:   5    -0.174405449637E+04   -0.11626E-02   -0.10927E-02   720   0.135E-01-0.294E-02
CGA:   6    -0.174405515156E+04   -0.65519E-03   -0.67330E-03   720   0.563E-02 0.131E-02
CGA:   7    -0.174405569678E+04   -0.54522E-03   -0.60582E-03   720   0.799E-02-0.218E-02
CGA:   8    -0.174405578775E+04   -0.90973E-04   -0.11979E-03   720   0.301E-02 0.594E-03
CGA:   9    -0.174405582033E+04   -0.32579E-04   -0.63595E-04   720   0.127E-02 0.629E-03
CGA:  10    -0.174405586153E+04   -0.41204E-04   -0.47300E-04   720   0.834E-03 0.179E-03
CGA:  11    -0.174405591775E+04   -0.56214E-04   -0.48112E-04   720   0.134E-02-0.577E-03
CGA:  12    -0.174405593599E+04   -0.18245E-04   -0.33022E-04   720   0.265E-03 0.376E-03
CGA:  13    -0.174405595323E+04   -0.17242E-04   -0.16826E-04   720   0.174E-03-0.322E-04
CGA:  14    -0.174405594853E+04    0.47026E-05   -0.28147E-04   720   0.164E-02-0.268E-03
CGA:  15    -0.174405596461E+04   -0.16085E-04   -0.34403E-04   720   0.220E-03 0.387E-03
CGA:  16    -0.174405597347E+04   -0.88558E-05   -0.93874E-05   720   0.722E-04 0.169E-04
 100 F= -.17440560E+04 E0= -.17440302E+04  d E =-.312078E-03  mag=    46.0000
