       N       E                     dE             d eps       ncg     rms          ort
DAV:   1     0.294787957829E+04    0.29479E+04   -0.13751E+05 10584   0.177E+03
DAV:   2    -0.226689616307E+02   -0.29705E+04   -0.27234E+04 10584   0.458E+02
DAV:   3    -0.427588649961E+03   -0.40492E+03   -0.39610E+03 10584   0.192E+02
DAV:   4    -0.444831566120E+03   -0.17243E+02   -0.16813E+02 10584   0.387E+01
DAV:   5    -0.445415394363E+03   -0.58383E+00   -0.57535E+00 10584   0.583E+00
SDA:   6    -0.235290036938E+03    0.21013E+03   -0.57535E+00 10584   0.146E+04 0.000E+00
CGA:   7    -0.258166006059E+03   -0.22876E+02   -0.13281E+03 10584   0.272E+04-0.173E+03
CGA:   8    -0.256761424922E+03    0.14046E+01   -0.11661E+03 10584   0.132E+04-0.235E+03
CGA:   9    -0.246300367795E+03    0.10461E+02   -0.48105E+02 10584   0.170E+04 0.241E+03
CGA:  10    -0.248368320052E+03   -0.20680E+01   -0.10115E+03 10584   0.129E+04-0.120E+04
CGA:  11    -0.310717834967E+03   -0.62350E+02   -0.49269E+02 10584   0.244E+03-0.152E+03
CGA:  12    -0.325664137014E+03   -0.14946E+02   -0.12478E+02 10584   0.832E+02 0.540E+02
CGA:  13    -0.326339294908E+03   -0.67516E+00   -0.31859E+01 10584   0.359E+03-0.945E+02
CGA:  14    -0.318684194724E+03    0.76551E+01   -0.21359E+02 10584   0.256E+03-0.962E+02
CGA:  15    -0.327570653010E+03   -0.88865E+01   -0.29943E+01 10584   0.192E+03 0.288E+03
CGA:  16    -0.323801562482E+03    0.37691E+01   -0.60114E+01 10584   0.734E+03-0.538E+03
CGA:  17    -0.309930219254E+03    0.13871E+02   -0.43047E+02 10584   0.289E+03-0.181E+03
CGA:  18    -0.318331862562E+03   -0.84016E+01   -0.30380E+01 10584   0.467E+03 0.554E+03
CGA:  19    -0.325333587173E+03   -0.70017E+01   -0.12784E+02 10584   0.506E+03-0.680E+03
CGA:  20    -0.315097519753E+03    0.10236E+02   -0.23613E+02 10584   0.334E+03-0.200E+03
CGA:  21    -0.326002621263E+03   -0.10905E+02   -0.29868E+01 10584   0.611E+03 0.765E+03
CGA:  22    -0.314853540825E+03    0.11149E+02   -0.20859E+02 10584   0.117E+04-0.703E+03
CGA:  23    -0.303484360170E+03    0.11369E+02   -0.56190E+02 10584   0.300E+03-0.229E+03
CGA:  24    -0.315859790839E+03   -0.12375E+02   -0.39089E+01 10584   0.590E+03 0.739E+03
CGA:  25    -0.317649422388E+03   -0.17896E+01   -0.15216E+02 10584   0.128E+04-0.130E+04
CGA:  26    -0.302604915570E+03    0.15045E+02   -0.54876E+02 10584   0.339E+03-0.252E+03
CGA:  27    -0.329332187166E+03   -0.26727E+02   -0.48587E+01 10584   0.527E+03 0.106E+04
CGA:  28    -0.324026275603E+03    0.53059E+01   -0.14469E+02 10584   0.905E+03-0.691E+03
CGA:  29    -0.309063048575E+03    0.14963E+02   -0.33055E+02 10584   0.614E+03-0.370E+03
CGA:  30    -0.330725034169E+03   -0.21662E+02   -0.82726E+01 10584   0.727E+03-0.130E+04
CGA:  31    -0.310147996996E+03    0.20577E+02   -0.23205E+02 10584   0.136E+04-0.623E+03
CGA:  32    -0.298637595695E+03    0.11510E+02   -0.44639E+02 10584   0.760E+03-0.482E+03
CGA:  33    -0.302096515752E+03   -0.34589E+01   -0.17044E+02 10584   0.709E+03-0.615E+03
CGA:  34    -0.307038098730E+03   -0.49416E+01   -0.17359E+02 10584   0.443E+03-0.689E+03
CGA:  35    -0.306096827568E+03    0.94127E+00   -0.11866E+02 10584   0.412E+03-0.348E+03
CGA:  36    -0.314897984922E+03   -0.88012E+01   -0.89345E+01 10584   0.228E+04-0.272E+04
CGA:  37    -0.300881648768E+03    0.14016E+02   -0.71184E+02 10584   0.454E+03-0.329E+03
CGA:  38    -0.333217459344E+03   -0.32336E+02   -0.81093E+01 10584   0.560E+03-0.156E+04
CGA:  39    -0.328328094017E+03    0.48894E+01   -0.11898E+02 10584   0.101E+04-0.651E+03
CGA:  40    -0.310511519626E+03    0.17817E+02   -0.22964E+02 10584   0.248E+04-0.148E+04
CGA:  41    -0.299202732979E+03    0.11309E+02   -0.68712E+02 10584   0.393E+03-0.316E+03
CGA:  42    -0.334729769814E+03   -0.35527E+02   -0.64299E+01 10584   0.426E+03-0.144E+04
CGA:  43    -0.335263138039E+03   -0.53337E+00   -0.68640E+01 10584   0.290E+03-0.296E+03
CGA:  44    -0.337146871840E+03   -0.18837E+01   -0.38337E+01 10584   0.151E+03-0.238E+03
CGA:  45    -0.337757987790E+03   -0.61112E+00   -0.19407E+01 10584   0.595E+02-0.808E+02
CGA:  46    -0.338280373843E+03   -0.52239E+00   -0.48863E+00 10584   0.144E+01 0.496E+00
CGA:  47    -0.338652315010E+03   -0.37194E+00   -0.44104E-03 10584   0.244E+02-0.462E+00
CGA:  48    -0.337990429773E+03    0.66189E+00   -0.26065E+00 10584   0.106E+03-0.111E+03
CGA:  49    -0.336598434872E+03    0.13920E+01   -0.35338E+01 10584   0.102E+03-0.368E+02
CGA:  50    -0.337982693336E+03   -0.13843E+01   -0.16023E+01 10584   0.925E+02 0.519E+01
CGA:  51    -0.335913719048E+03    0.20690E+01   -0.15093E+01 10584   0.358E+03-0.238E+03
CGA:  52    -0.335108267102E+03    0.80545E+00   -0.12024E+02 10584   0.166E+03-0.729E+02
CGA:  53    -0.337254748633E+03   -0.21465E+01   -0.25752E+01 10584   0.109E+03 0.408E+02
CGA:  54    -0.335429025604E+03    0.18257E+01   -0.21010E+01 10584   0.353E+03-0.378E+03
CGA:  55    -0.335469536706E+03   -0.40511E-01   -0.10714E+02 10584   0.111E+03-0.772E+02
CGA:  56    -0.337459353152E+03   -0.19898E+01   -0.12497E+01 10584   0.819E+02 0.887E+02
CGA:  57    -0.339137972046E+03   -0.16786E+01   -0.86282E+00 10584   0.820E+01 0.357E+02
CGA:  58    -0.339225492668E+03   -0.87521E-01   -0.88894E-01 10584   0.459E+00-0.270E+00
CGA:  59    -0.339243374150E+03   -0.17881E-01   -0.17884E-01 10584   0.769E+00-0.204E-01
CGA:  60    -0.339320529144E+03   -0.77155E-01   -0.67228E-01 10584   0.543E+00 0.213E+00
CGA:  61    -0.339335596987E+03   -0.15068E-01   -0.16101E-01 10584   0.261E+00-0.590E-01
CGA:  62    -0.339359370969E+03   -0.23774E-01   -0.23874E-01 10584   0.776E+00-0.561E-02
CGA:  63    -0.339392992264E+03   -0.33621E-01   -0.28152E-01 10584   0.131E+00 0.434E-01
CGA:  64    -0.339400805173E+03   -0.78129E-02   -0.77787E-02 10584   0.201E+00-0.205E-01
CGA:  65    -0.339421563826E+03   -0.20759E-01   -0.24705E-01 10584   0.430E+00-0.442E-01
CGA:  66    -0.339430249564E+03   -0.86857E-02   -0.72683E-02 10584   0.322E-01-0.838E-02
CGA:  67    -0.339432267892E+03   -0.20183E-02   -0.20587E-02 10584   0.111E+00-0.966E-02
CGA:  68    -0.339437403077E+03   -0.51352E-02   -0.11408E-01 10584   0.276E+00-0.723E-01
CGA:  69    -0.339443395291E+03   -0.59922E-02   -0.59317E-02 10584   0.401E-01 0.368E-02
CGA:  70    -0.339449404675E+03   -0.60094E-02   -0.59468E-02 10584   0.580E-01 0.764E-03
CGA:  71    -0.339451811783E+03   -0.24071E-02   -0.24626E-02 10584   0.805E-02 0.228E-02
CGA:  72    -0.339452719740E+03   -0.90796E-03   -0.84253E-03 10584   0.240E-01 0.184E-02
CGA:  73    -0.339456245780E+03   -0.35260E-02   -0.33981E-02 10584   0.248E-01 0.263E-02
CGA:  74    -0.339457581243E+03   -0.13355E-02   -0.13510E-02 10584   0.167E-01 0.302E-03
CGA:  75    -0.339459878185E+03   -0.22969E-02   -0.21693E-02 10584   0.365E-01 0.207E-02
CGA:  76    -0.339462498404E+03   -0.26202E-02   -0.26453E-02 10584   0.208E-01 0.275E-02
CGA:  77    -0.339463979387E+03   -0.14810E-02   -0.14751E-02 10584   0.241E-01-0.105E-02
CGA:  78    -0.339466208613E+03   -0.22292E-02   -0.22476E-02 10584   0.323E-01-0.109E-02
CGA:  79    -0.339468363473E+03   -0.21549E-02   -0.21529E-02 10584   0.282E-01-0.148E-02
CGA:  80    -0.339471751221E+03   -0.33877E-02   -0.38979E-02 10584   0.122E+00-0.798E-02
CGA:  81    -0.339477423460E+03   -0.56722E-02   -0.41234E-02 10584   0.463E-01-0.152E-01
CGA:  82    -0.339480076257E+03   -0.26528E-02   -0.25451E-02 10584   0.690E-01-0.992E-02
CGA:  83    -0.339484649518E+03   -0.45733E-02   -0.46369E-02 10584   0.110E+00-0.148E-01
CGA:  84    -0.339489343772E+03   -0.46943E-02   -0.29618E-02 10584   0.214E-01-0.959E-02
CGA:  85    -0.339473681651E+03    0.15662E-01   -0.67354E-02 10584   0.991E+00-0.908E-01
CGA:  86    -0.339497350512E+03   -0.23669E-01   -0.25197E-01 10584   0.656E-01-0.231E-01
CGA:  87    -0.339499325204E+03   -0.19747E-02   -0.20928E-02 10584   0.139E-01 0.298E-02
CGA:  88    -0.339503257102E+03   -0.39319E-02   -0.35189E-02 10584   0.483E-01 0.257E-02
CGA:  89    -0.339508790296E+03   -0.55332E-02   -0.55309E-02 10584   0.351E-01 0.779E-03
CGA:  90    -0.339510172840E+03   -0.13825E-02   -0.14408E-02 10584   0.181E-01-0.976E-03
CGA:  91    -0.339513075836E+03   -0.29030E-02   -0.27688E-02 10584   0.177E-01 0.186E-02
CGA:  92    -0.339514702705E+03   -0.16269E-02   -0.16295E-02 10584   0.787E-02 0.323E-03
CGA:  93    -0.339515673466E+03   -0.97076E-03   -0.10045E-02 10584   0.136E-01-0.100E-02
CGA:  94    -0.339516541889E+03   -0.86842E-03   -0.89409E-03 10584   0.856E-02 0.148E-02
CGA:  95    -0.339517053920E+03   -0.51203E-03   -0.52512E-03 10584   0.610E-02 0.355E-03
CGA:  96    -0.339518019697E+03   -0.96578E-03   -0.10093E-02 10584   0.145E-01-0.663E-03
CGA:  97    -0.339518861287E+03   -0.84159E-03   -0.88094E-03 10584   0.417E-02 0.193E-02
CGA:  98    -0.339519033315E+03   -0.17203E-03   -0.22710E-03 10584   0.337E-02 0.126E-02
CGA:  99    -0.339519778795E+03   -0.74548E-03   -0.63778E-03 10584   0.605E-02 0.189E-02
CGA: 100    -0.339520068490E+03   -0.28969E-03   -0.25057E-03 10584   0.176E-02-0.812E-03
CGA: 101    -0.339520256175E+03   -0.18769E-03   -0.17320E-03 10584   0.270E-02 0.598E-03
CGA: 102    -0.339520509839E+03   -0.25366E-03   -0.26401E-03 10584   0.257E-02 0.554E-03
CGA: 103    -0.339520906169E+03   -0.39633E-03   -0.38761E-03 10584   0.344E-02 0.257E-03
CGA: 104    -0.339521143416E+03   -0.23725E-03   -0.25220E-03 10584   0.195E-02 0.502E-03
CGA: 105    -0.339521282381E+03   -0.13897E-03   -0.15129E-03 10584   0.164E-02 0.556E-03
CGA: 106    -0.339520800825E+03    0.48156E-03   -0.35999E-03 10584   0.542E-01-0.368E-02
CGA: 107    -0.339522127670E+03   -0.13268E-02   -0.14989E-02 10584   0.394E-02 0.209E-02
CGA: 108    -0.339522277865E+03   -0.15019E-03   -0.18587E-03 10584   0.267E-02 0.271E-03
CGA: 109    -0.339522853370E+03   -0.57550E-03   -0.59217E-03 10584   0.291E-02-0.294E-03
CGA: 110    -0.339522992229E+03   -0.13886E-03   -0.13023E-03 10584   0.130E-02-0.962E-04
CGA: 111    -0.339523275045E+03   -0.28282E-03   -0.33049E-03 10584   0.105E-01-0.437E-03
CGA: 112    -0.339523635990E+03   -0.36094E-03   -0.27408E-03 10584   0.491E-02-0.392E-04
CGA: 113    -0.339523755051E+03   -0.11906E-03   -0.10696E-03 10584   0.157E-02 0.703E-04
CGA: 114    -0.339523817757E+03   -0.62706E-04   -0.68826E-04 10584   0.207E-02 0.614E-04
CGA: 115    -0.339523917601E+03   -0.99844E-04   -0.12214E-03 10584   0.350E-02 0.242E-03
CGA: 116    -0.339524047792E+03   -0.13019E-03   -0.17422E-03 10584   0.221E-02 0.429E-03
CGA: 117    -0.339524112211E+03   -0.64419E-04   -0.76878E-04 10584   0.141E-02 0.162E-03
CGA: 118    -0.339524309234E+03   -0.19702E-03   -0.20214E-03 10584   0.910E-02-0.491E-03
CGA: 119    -0.339524520389E+03   -0.21115E-03   -0.14460E-03 10584   0.129E-01-0.121E-03
CGA: 120    -0.339524855287E+03   -0.33490E-03   -0.34176E-03 10584   0.521E-02-0.300E-02
CGA: 121    -0.339524917658E+03   -0.62370E-04   -0.81778E-04 10584   0.283E-02-0.126E-03
CGA: 122    -0.339524950006E+03   -0.32348E-04   -0.71273E-04 10584   0.285E-02 0.433E-03
CGA: 123    -0.339525037301E+03   -0.87295E-04   -0.13981E-03 10584   0.551E-02 0.846E-03
CGA: 124    -0.339525346252E+03   -0.30895E-03   -0.35242E-03 10584   0.685E-02 0.116E-02
CGA: 125    -0.339525567679E+03   -0.22143E-03   -0.22899E-03 10584   0.208E-02-0.231E-03
CGA: 126    -0.339525667452E+03   -0.99774E-04   -0.86712E-04 10584   0.346E-02-0.333E-03
CGA: 127    -0.339526011802E+03   -0.34435E-03   -0.34023E-03 10584   0.110E-01-0.271E-04
CGA: 128    -0.339526241460E+03   -0.22966E-03   -0.20474E-03 10584   0.311E-02 0.267E-02
CGA: 129    -0.339526287488E+03   -0.46028E-04   -0.70981E-04 10584   0.123E-02 0.439E-03
CGA: 130    -0.339526318744E+03   -0.31256E-04   -0.46391E-04 10584   0.158E-02 0.267E-03
CGA: 131    -0.339526421849E+03   -0.10311E-03   -0.10163E-03 10584   0.272E-02-0.121E-03
CGA: 132    -0.339526576617E+03   -0.15477E-03   -0.11927E-03 10584   0.272E-02-0.110E-02
CGA: 133    -0.339526628433E+03   -0.51816E-04   -0.25128E-04 10584   0.126E-02-0.325E-03
CGA: 134    -0.339526655509E+03   -0.27076E-04   -0.18096E-04 10584   0.762E-03-0.122E-03
CGA: 135    -0.339526679851E+03   -0.24342E-04   -0.22091E-04 10584   0.159E-02-0.467E-04
CGA: 136    -0.339526745780E+03   -0.65929E-04   -0.63231E-04 10584   0.353E-02-0.674E-04
SDA: 137    -0.339526826770E+03   -0.80990E-04   -0.77515E-04 10584   0.209E-02-0.230E-03
CGA: 138    -0.339526901255E+03   -0.74485E-04   -0.73038E-04 10584   0.514E-03-0.540E-04
CGA: 139    -0.339526932179E+03   -0.30924E-04   -0.31482E-04 10584   0.420E-03 0.134E-03
CGA: 140    -0.339526748888E+03    0.18329E-03   -0.11415E-03 10584   0.695E-02-0.122E-02
CGA: 141    -0.339526963947E+03   -0.21506E-03   -0.25949E-03 10584   0.786E-03 0.579E-03
CGA: 142    -0.339527032337E+03   -0.68389E-04   -0.77916E-04 10584   0.438E-03 0.364E-03
CGA: 143    -0.339527070473E+03   -0.38137E-04   -0.41285E-04 10584   0.156E-03 0.590E-04
CGA: 144    -0.339527075580E+03   -0.51062E-05   -0.10066E-04 10584   0.737E-04 0.868E-04
CGA: 145    -0.339527098465E+03   -0.22885E-04    0.10264E-04 10584   0.199E-03 0.187E-05
CGA: 146    -0.339527149060E+03   -0.50595E-04    0.97285E-04 10584   0.155E-03 0.122E-04
CGA: 147    -0.339526334437E+03    0.81462E-03   -0.43522E-03 10584   0.295E-01-0.158E-02
CGA: 148    -0.339527183653E+03   -0.84922E-03   -0.91102E-03 10584   0.150E-02 0.131E-02
CGA: 149    -0.339527231111E+03   -0.47459E-04   -0.57372E-04 10584   0.587E-03 0.505E-04
CGA: 150    -0.339527270864E+03   -0.39752E-04   -0.63254E-04 10584   0.243E-03 0.287E-03
CGA: 151    -0.339527283731E+03   -0.12867E-04   -0.20516E-04 10584   0.163E-03 0.602E-04
CGA: 152    -0.339527294240E+03   -0.10510E-04   -0.15457E-04 10584   0.139E-03 0.492E-04
CGA: 153    -0.339527291797E+03    0.24435E-05   -0.66529E-05 10584   0.263E-04 0.679E-04
   1 F= -.33952729E+03 E0= -.33952140E+03  d E =-.339527E+03  mag=    14.0000
       N       E                     dE             d eps       ncg     rms          ort
SDA:   1    -0.339526526755E+03    0.76748E-03    0.00000E+00 10584   0.474E-01 0.000E+00
CGA:   2    -0.339527501403E+03   -0.97465E-03   -0.10635E-02 10584   0.814E-03 0.918E-03
CGA:   3    -0.339527519733E+03   -0.18330E-04   -0.29942E-04 10584   0.180E-03 0.101E-03
CGA:   4    -0.339527537369E+03   -0.17636E-04   -0.20727E-04 10584   0.269E-03 0.705E-04
CGA:   5    -0.339527547926E+03   -0.10556E-04   -0.18570E-04 10584   0.681E-04 0.839E-04
CGA:   6    -0.339527561517E+03   -0.13592E-04   -0.13680E-04 10584   0.217E-03-0.655E-05
CGA:   7    -0.339527560988E+03    0.52903E-06   -0.57692E-05 10584   0.780E-04 0.570E-04
   2 F= -.33952756E+03 E0= -.33952166E+03  d E =-.269192E-03  mag=    14.0000
       N       E                     dE             d eps       ncg     rms          ort
SDA:   1    -0.339526114059E+03    0.14475E-02    0.00000E+00 10584   0.846E-02 0.000E+00
CGA:   2    -0.339526927257E+03   -0.81320E-03   -0.79100E-03 10584   0.164E-01-0.639E-03
CGA:   3    -0.339528213943E+03   -0.12867E-02   -0.12571E-02 10584   0.945E-02-0.699E-03
CGA:   4    -0.339528483787E+03   -0.26984E-03   -0.32508E-03 10584   0.192E-02 0.729E-03
CGA:   5    -0.339528670809E+03   -0.18702E-03   -0.19370E-03 10584   0.219E-02 0.252E-03
CGA:   6    -0.339528796043E+03   -0.12523E-03   -0.11235E-03 10584   0.616E-03-0.186E-03
CGA:   7    -0.339528814608E+03   -0.18565E-04   -0.27020E-04 10584   0.293E-03 0.124E-03
CGA:   8    -0.339528838708E+03   -0.24100E-04   -0.27335E-04 10584   0.101E-03 0.946E-04
CGA:   9    -0.339528704328E+03    0.13438E-03   -0.52872E-04 10584   0.803E-02-0.655E-03
CGA:  10    -0.339528836947E+03   -0.13262E-03   -0.18324E-03 10584   0.345E-03 0.432E-03
CGA:  11    -0.339528842251E+03   -0.53044E-05   -0.15229E-04 10584   0.182E-03 0.128E-03
CGA:  12    -0.339528871156E+03   -0.28906E-04   -0.28936E-04 10584   0.270E-03-0.599E-04
CGA:  13    -0.339528875129E+03   -0.39729E-05   -0.36185E-05 10584   0.800E-04-0.400E-05
   3 F= -.33952888E+03 E0= -.33952297E+03  d E =-.131414E-02  mag=    14.0000
       N       E                     dE             d eps       ncg     rms          ort
SDA:   1    -0.339448510431E+03    0.80361E-01    0.00000E+00 10584   0.299E+01 0.000E+00
CGA:   2    -0.339513887316E+03   -0.65377E-01   -0.75900E-01 10584   0.120E+00-0.440E+00
CGA:   3    -0.339518330719E+03   -0.44434E-02   -0.45127E-02 10584   0.523E-01 0.134E-02
CGA:   4    -0.339526543509E+03   -0.82128E-02   -0.83403E-02 10584   0.807E-01-0.238E-02
CGA:   5    -0.339529422002E+03   -0.28785E-02   -0.29493E-02 10584   0.921E-02 0.922E-03
CGA:   6    -0.339530667138E+03   -0.12451E-02   -0.12519E-02 10584   0.130E-01-0.206E-03
CGA:   7    -0.339531084880E+03   -0.41774E-03   -0.45243E-03 10584   0.135E-02 0.500E-03
CGA:   8    -0.339531337481E+03   -0.25260E-03   -0.27017E-03 10584   0.132E-02-0.184E-03
CGA:   9    -0.339531357323E+03   -0.19842E-04   -0.35136E-04 10584   0.359E-03 0.214E-03
CGA:  10    -0.339531374240E+03   -0.16917E-04   -0.22187E-04 10584   0.338E-03 0.116E-03
CGA:  11    -0.339531420887E+03   -0.46647E-04   -0.49128E-04 10584   0.586E-03-0.182E-03
CGA:  12    -0.339531430628E+03   -0.97415E-05   -0.14363E-04 10584   0.899E-04 0.611E-04
CGA:  13    -0.339531443064E+03   -0.12436E-04   -0.20390E-04 10584   0.405E-03-0.712E-04
CGA:  14    -0.339531454850E+03   -0.11786E-04   -0.12761E-04 10584   0.486E-04 0.130E-04
CGA:  15    -0.339531454771E+03    0.79202E-07   -0.15749E-05 10584   0.281E-04 0.257E-04
   4 F= -.33953145E+03 E0= -.33952555E+03  d E =-.257964E-02  mag=    14.0000
       N       E                     dE             d eps       ncg     rms          ort
SDA:   1    -0.339514808260E+03    0.16647E-01    0.00000E+00 10584   0.598E-01 0.000E+00
CGA:   2    -0.339520796353E+03   -0.59881E-02   -0.60038E-02 10584   0.924E-01-0.246E-02
CGA:   3    -0.339530281529E+03   -0.94852E-02   -0.94787E-02 10584   0.360E-01 0.589E-03
CGA:   4    -0.339531587053E+03   -0.13055E-02   -0.12973E-02 10584   0.136E-01-0.513E-03
CGA:   5    -0.339533175094E+03   -0.15880E-02   -0.15665E-02 10584   0.318E-02 0.825E-03
CGA:   6    -0.339533462007E+03   -0.28691E-03   -0.28360E-03 10584   0.420E-02-0.435E-03
CGA:   7    -0.339533627076E+03   -0.16507E-03   -0.18096E-03 10584   0.124E-02 0.377E-03
CGA:   8    -0.339533665329E+03   -0.38253E-04   -0.48488E-04 10584   0.361E-03 0.190E-03
CGA:   9    -0.339533709154E+03   -0.43825E-04   -0.46803E-04 10584   0.125E-02-0.119E-03
CGA:  10    -0.339533738625E+03   -0.29471E-04   -0.26382E-04 10584   0.844E-03-0.545E-04
CGA:  11    -0.339533751725E+03   -0.13100E-04   -0.13660E-04 10584   0.212E-03 0.569E-05
CGA:  12    -0.339533758276E+03   -0.65509E-05   -0.60430E-05 10584   0.215E-03-0.103E-04
CGA:  13    -0.339533774345E+03   -0.16069E-04   -0.15879E-04 10584   0.635E-03-0.118E-03
CGA:  14    -0.339533790388E+03   -0.16042E-04   -0.19136E-04 10584   0.549E-04 0.613E-04
CGA:  15    -0.339533790211E+03    0.17673E-06   -0.16072E-05 10584   0.343E-04 0.357E-04
CGA:  16    -0.339533795718E+03   -0.55072E-05    0.14953E-04 10584   0.256E-04 0.262E-04
   5 F= -.33953380E+03 E0= -.33952791E+03  d E =-.234095E-02  mag=    14.0000
       N       E                     dE             d eps       ncg     rms          ort
SDA:   1    -0.339279779593E+03    0.25401E+00    0.00000E+00 10584   0.640E+00 0.000E+00
CGA:   2    -0.339421637021E+03   -0.14186E+00   -0.14180E+00 10584   0.183E+01 0.668E-03
CGA:   3    -0.339493045651E+03   -0.71409E-01   -0.71132E-01 10584   0.311E+00 0.563E-02
CGA:   4    -0.339516313089E+03   -0.23267E-01   -0.23290E-01 10584   0.219E+00-0.202E-02
CGA:   5    -0.339532622625E+03   -0.16310E-01   -0.16324E-01 10584   0.353E-01 0.362E-02
CGA:   6    -0.339538304826E+03   -0.56822E-02   -0.56918E-02 10584   0.120E-01-0.131E-03
CGA:   7    -0.339538897378E+03   -0.59255E-03   -0.61671E-03 10584   0.930E-02 0.705E-03
CGA:   8    -0.339539776476E+03   -0.87910E-03   -0.88137E-03 10584   0.603E-02-0.401E-03
CGA:   9    -0.339540057720E+03   -0.28124E-03   -0.28107E-03 10584   0.156E-02-0.213E-04
CGA:  10    -0.339540316057E+03   -0.25834E-03   -0.36155E-03 10584   0.400E-02-0.685E-03
CGA:  11    -0.339540341916E+03   -0.25859E-04   -0.41648E-04 10584   0.146E-02 0.217E-03
CGA:  12    -0.339540351901E+03   -0.99857E-05   -0.27211E-04 10584   0.745E-03 0.245E-03
CGA:  13    -0.339540370721E+03   -0.18820E-04   -0.31035E-04 10584   0.121E-02 0.259E-03
CGA:  14    -0.339540453308E+03   -0.82587E-04   -0.85525E-04 10584   0.106E-02 0.103E-03
CGA:  15    -0.339540514782E+03   -0.61474E-04   -0.43619E-04 10584   0.549E-03-0.441E-03
CGA:  16    -0.339540531421E+03   -0.16640E-04   -0.11108E-04 10584   0.425E-03-0.132E-03
CGA:  17    -0.339540538620E+03   -0.71986E-05   -0.11110E-04 10584   0.487E-03 0.964E-04
CGA:  18    -0.339540556618E+03   -0.17998E-04   -0.24694E-04 10584   0.269E-03 0.213E-03
CGA:  19    -0.339540581043E+03   -0.24425E-04   -0.23182E-04 10584   0.494E-03-0.113E-03
CGA:  20    -0.339540593735E+03   -0.12692E-04   -0.97346E-05 10584   0.538E-03-0.806E-04
CGA:  21    -0.339540599417E+03   -0.56814E-05   -0.66679E-05 10584   0.182E-03 0.185E-04
   6 F= -.33954060E+03 E0= -.33953476E+03  d E =-.680370E-02  mag=    14.0000
       N       E                     dE             d eps       ncg     rms          ort
SDA:   1    -0.338878525100E+03    0.66207E+00    0.00000E+00 10584   0.157E+01 0.000E+00
CGA:   2    -0.339264594429E+03   -0.38607E+00   -0.39137E+00 10584   0.578E+01-0.342E-01
CGA:   3    -0.339463315965E+03   -0.19872E+00   -0.20233E+00 10584   0.400E+00-0.104E+00
CGA:   4    -0.339505415419E+03   -0.42099E-01   -0.41852E-01 10584   0.466E+00 0.748E-02
CGA:   5    -0.339534218911E+03   -0.28803E-01   -0.28837E-01 10584   0.598E-01-0.473E-02
CGA:   6    -0.339542100036E+03   -0.78811E-02   -0.78271E-02 10584   0.367E-01 0.873E-03
CGA:   7    -0.339544290059E+03   -0.21900E-02   -0.21667E-02 10584   0.158E-01-0.177E-02
CGA:   8    -0.339545744379E+03   -0.14543E-02   -0.14293E-02 10584   0.139E-01 0.119E-02
CGA:   9    -0.339546452512E+03   -0.70813E-03   -0.68344E-03 10584   0.468E-02-0.953E-03
CGA:  10    -0.339546825966E+03   -0.37345E-03   -0.37248E-03 10584   0.301E-02 0.761E-04
CGA:  11    -0.339547051991E+03   -0.22602E-03   -0.22605E-03 10584   0.209E-02 0.277E-04
CGA:  12    -0.339547177520E+03   -0.12553E-03   -0.12945E-03 10584   0.110E-02 0.296E-03
CGA:  13    -0.339547223325E+03   -0.45805E-04   -0.25381E-03 10584   0.106E-01-0.162E-02
CGA:  14    -0.339547412638E+03   -0.18931E-03   -0.24827E-03 10584   0.569E-03 0.981E-03
CGA:  15    -0.339547423629E+03   -0.10990E-04   -0.20774E-04 10584   0.299E-03 0.222E-03
CGA:  16    -0.339547467768E+03   -0.44140E-04   -0.42263E-04 10584   0.727E-03 0.698E-04
CGA:  17    -0.339547521382E+03   -0.53614E-04   -0.52029E-04 10584   0.164E-03-0.854E-04
CGA:  18    -0.339547515958E+03    0.54243E-05   -0.30750E-04 10584   0.231E-02-0.265E-03
CGA:  19    -0.339547573589E+03   -0.57632E-04   -0.62601E-04 10584   0.192E-03 0.663E-04
CGA:  20    -0.339547573482E+03    0.10778E-06   -0.56977E-05 10584   0.107E-03 0.114E-03
   7 F= -.33954757E+03 E0= -.33954190E+03  d E =-.697406E-02  mag=    14.0000
       N       E                     dE             d eps       ncg     rms          ort
SDA:   1    -0.338903158206E+03    0.64442E+00    0.00000E+00 10584   0.485E+01 0.000E+00
CGA:   2    -0.339071547460E+03   -0.16839E+00   -0.15056E+00 10584   0.136E+01 0.274E+00
CGA:   3    -0.339329020192E+03   -0.25747E+00   -0.25501E+00 10584   0.318E+01 0.398E-01
CGA:   4    -0.339493154390E+03   -0.16413E+00   -0.15161E+00 10584   0.508E+00 0.232E+00
CGA:   5    -0.339509863751E+03   -0.16709E-01   -0.17215E-01 10584   0.207E+00 0.610E-02
CGA:   6    -0.339539778204E+03   -0.29914E-01   -0.29914E-01 10584   0.169E+00-0.966E-04
CGA:   7    -0.339545146821E+03   -0.53686E-02   -0.52677E-02 10584   0.366E-01-0.747E-02
CGA:   8    -0.339547650599E+03   -0.25038E-02   -0.24875E-02 10584   0.325E-01-0.425E-03
CGA:   9    -0.339550268124E+03   -0.26175E-02   -0.26303E-02 10584   0.827E-02 0.426E-03
CGA:  10    -0.339550742161E+03   -0.47404E-03   -0.43684E-03 10584   0.898E-02-0.634E-03
CGA:  11    -0.339551552495E+03   -0.81033E-03   -0.81540E-03 10584   0.211E-02 0.289E-03
CGA:  12    -0.339551615664E+03   -0.63170E-04   -0.94526E-04 10584   0.152E-02 0.430E-03
CGA:  13    -0.339551835213E+03   -0.21955E-03   -0.21859E-03 10584   0.228E-02 0.114E-03
CGA:  14    -0.339551989278E+03   -0.15406E-03   -0.13832E-03 10584   0.582E-03-0.293E-03
CGA:  15    -0.339552047172E+03   -0.57894E-04   -0.57385E-04 10584   0.719E-03 0.114E-03
CGA:  16    -0.339552133996E+03   -0.86825E-04   -0.85931E-04 10584   0.100E-02-0.102E-03
CGA:  17    -0.339552159700E+03   -0.25704E-04   -0.33670E-04 10584   0.331E-03 0.118E-03
CGA:  18    -0.339552176469E+03   -0.16769E-04   -0.18889E-04 10584   0.336E-03 0.387E-04
CGA:  19    -0.339552214767E+03   -0.38298E-04   -0.38241E-04 10584   0.996E-03-0.122E-03
CGA:  20    -0.339552232119E+03   -0.17352E-04   -0.22259E-04 10584   0.928E-03 0.740E-04
CGA:  21    -0.339552238879E+03   -0.67596E-05   -0.18885E-04 10584   0.212E-03 0.163E-03
   8 F= -.33955224E+03 E0= -.33954668E+03  d E =-.466540E-02  mag=    14.0000
       N       E                     dE             d eps       ncg     rms          ort
SDA:   1    -0.339382762515E+03    0.16947E+00    0.00000E+00 10584   0.548E+00 0.000E+00
CGA:   2    -0.339422647304E+03   -0.39885E-01   -0.39935E-01 10584   0.951E+00 0.528E-02
CGA:   3    -0.339521964098E+03   -0.99317E-01   -0.99269E-01 10584   0.138E+00 0.254E-02
CGA:   4    -0.339536428051E+03   -0.14464E-01   -0.14486E-01 10584   0.172E+00-0.896E-03
CGA:   5    -0.339548319648E+03   -0.11892E-01   -0.11835E-01 10584   0.223E-01-0.432E-02
CGA:   6    -0.339550451666E+03   -0.21320E-02   -0.21235E-02 10584   0.160E-01 0.121E-02
CGA:   7    -0.339551552789E+03   -0.11011E-02   -0.10451E-02 10584   0.850E-02-0.202E-02
CGA:   8    -0.339551917101E+03   -0.36431E-03   -0.37750E-03 10584   0.447E-02 0.337E-03
CGA:   9    -0.339552290864E+03   -0.37376E-03   -0.37677E-03 10584   0.185E-02 0.456E-03
CGA:  10    -0.339552497646E+03   -0.20678E-03   -0.23097E-03 10584   0.363E-02-0.936E-03
CGA:  11    -0.339552550518E+03   -0.52872E-04   -0.91000E-04 10584   0.491E-03 0.592E-03
CGA:  12    -0.339552567768E+03   -0.17250E-04   -0.26193E-04 10584   0.438E-03 0.226E-03
CGA:  13    -0.339552651478E+03   -0.83710E-04   -0.88675E-04 10584   0.130E-02-0.918E-04
CGA:  14    -0.339552674852E+03   -0.23374E-04   -0.26200E-04 10584   0.670E-03 0.482E-04
CGA:  15    -0.339552683822E+03   -0.89699E-05   -0.13810E-04 10584   0.372E-03 0.766E-04
CGA:  16    -0.339552699985E+03   -0.16163E-04   -0.18664E-04 10584   0.806E-03 0.714E-04
CGA:  17    -0.339552763596E+03   -0.63611E-04   -0.63508E-04 10584   0.129E-02-0.100E-04
CGA:  18    -0.339552797439E+03   -0.33843E-04   -0.33723E-04 10584   0.611E-03-0.174E-04
CGA:  19    -0.339552804827E+03   -0.73878E-05   -0.12382E-04 10584   0.307E-03 0.905E-04
   9 F= -.33955280E+03 E0= -.33954736E+03  d E =-.565948E-03  mag=    14.0000
       N       E                     dE             d eps       ncg     rms          ort
SDA:   1    -0.339417639345E+03    0.13516E+00    0.00000E+00 10584   0.365E+00 0.000E+00
CGA:   2    -0.339480483731E+03   -0.62844E-01   -0.62284E-01 10584   0.736E+00 0.469E-02
CGA:   3    -0.339531597105E+03   -0.51113E-01   -0.51173E-01 10584   0.104E+00 0.636E-02
CGA:   4    -0.339541089310E+03   -0.94922E-02   -0.96237E-02 10584   0.178E+00-0.809E-02
CGA:   5    -0.339550247043E+03   -0.91577E-02   -0.91780E-02 10584   0.247E-01 0.109E-02
CGA:   6    -0.339551409083E+03   -0.11620E-02   -0.11996E-02 10584   0.122E-01 0.157E-02
CGA:   7    -0.339552618191E+03   -0.12091E-02   -0.12544E-02 10584   0.124E-01-0.192E-02
CGA:   8    -0.339552961371E+03   -0.34318E-03   -0.34904E-03 10584   0.350E-02 0.167E-03
CGA:   9    -0.339553216429E+03   -0.25506E-03   -0.25524E-03 10584   0.511E-02 0.567E-03
CGA:  10    -0.339553514794E+03   -0.29837E-03   -0.29135E-03 10584   0.708E-03-0.327E-03
CGA:  11    -0.339553608821E+03   -0.94027E-04   -0.93291E-04 10584   0.118E-02 0.942E-05
CGA:  12    -0.339553681306E+03   -0.72485E-04   -0.75259E-04 10584   0.251E-03 0.235E-03
CGA:  13    -0.339553734290E+03   -0.52984E-04   -0.43777E-04 10584   0.248E-03 0.129E-03
CGA:  14    -0.339553750980E+03   -0.16689E-04   -0.31018E-04 10584   0.139E-02-0.305E-03
CGA:  15    -0.339553769997E+03   -0.19018E-04   -0.33555E-04 10584   0.124E-03 0.258E-03
CGA:  16    -0.339553773479E+03   -0.34822E-05   -0.51776E-05 10584   0.870E-04 0.403E-04
CGA:  17    -0.339553748547E+03    0.24933E-04   -0.18920E-04 10584   0.404E-02-0.199E-03
CGA:  18    -0.339553840384E+03   -0.91837E-04   -0.11336E-03 10584   0.189E-03 0.210E-03
CGA:  19    -0.339553851405E+03   -0.11021E-04   -0.88927E-05 10584   0.105E-03-0.260E-04
CGA:  20    -0.339553856687E+03   -0.52822E-05   -0.78784E-05 10584   0.799E-04 0.646E-04
  10 F= -.33955386E+03 E0= -.33954849E+03  d E =-.105186E-02  mag=    14.0000
       N       E                     dE             d eps       ncg     rms          ort
SDA:   1    -0.338053401614E+03    0.15004E+01    0.00000E+00 10584   0.391E+01 0.000E+00
CGA:   2    -0.338683097112E+03   -0.62970E+00   -0.63417E+00 10584   0.116E+02-0.754E-01
CGA:   3    -0.339284848021E+03   -0.60175E+00   -0.60712E+00 10584   0.219E+01-0.233E+00
CGA:   4    -0.339393866769E+03   -0.10902E+00   -0.98555E-01 10584   0.779E+00 0.162E+00
CGA:   5    -0.339525855120E+03   -0.13199E+00   -0.13219E+00 10584   0.179E+00-0.557E-02
CGA:   6    -0.339536537318E+03   -0.10682E-01   -0.10461E-01 10584   0.163E+00-0.694E-02
CGA:   7    -0.339547863995E+03   -0.11327E-01   -0.11368E-01 10584   0.660E-01 0.123E-02
CGA:   8    -0.339551316122E+03   -0.34521E-02   -0.35084E-02 10584   0.250E-01 0.472E-03
CGA:   9    -0.339555216102E+03   -0.39000E-02   -0.39199E-02 10584   0.930E-02-0.466E-03
CGA:  10    -0.339555584086E+03   -0.36798E-03   -0.43392E-03 10584   0.650E-02 0.967E-03
CGA:  11    -0.339556609716E+03   -0.10256E-02   -0.10304E-02 10584   0.776E-02-0.163E-03
CGA:  12    -0.339556938597E+03   -0.32888E-03   -0.33109E-03 10584   0.203E-02 0.160E-04
CGA:  13    -0.339557515062E+03   -0.57646E-03   -0.68755E-03 10584   0.374E-02-0.482E-03
CGA:  14    -0.339557609029E+03   -0.93966E-04   -0.10495E-03 10584   0.139E-02 0.985E-04
CGA:  15    -0.339557694096E+03   -0.85067E-04   -0.10148E-03 10584   0.199E-02 0.361E-03
CGA:  16    -0.339557929896E+03   -0.23580E-03   -0.23882E-03 10584   0.105E-02 0.165E-03
CGA:  17    -0.339558017417E+03   -0.87521E-04   -0.68326E-04 10584   0.993E-03-0.379E-03
CGA:  18    -0.339558058230E+03   -0.40813E-04   -0.45044E-04 10584   0.958E-03 0.111E-03
CGA:  19    -0.339558108879E+03   -0.50649E-04   -0.57741E-04 10584   0.583E-03 0.134E-03
CGA:  20    -0.339558181486E+03   -0.72608E-04   -0.10213E-03 10584   0.453E-02-0.627E-03
CGA:  21    -0.339558250278E+03   -0.68791E-04   -0.11040E-03 10584   0.345E-03 0.494E-03
CGA:  22    -0.339558264989E+03   -0.14711E-04   -0.19898E-04 10584   0.317E-03 0.995E-04
CGA:  23    -0.339558317501E+03   -0.52512E-04   -0.51550E-04 10584   0.818E-03 0.372E-04
CGA:  24    -0.339558330727E+03   -0.13226E-04   -0.33773E-04 10584   0.312E-03 0.316E-03
CGA:  25    -0.339558330528E+03    0.19848E-06   -0.11555E-04 10584   0.189E-03 0.162E-03
CGA:  26    -0.339558381404E+03   -0.50876E-04    0.22302E-04 10584   0.258E-03 0.471E-04
CGA:  27    -0.339558409234E+03   -0.27829E-04   -0.27614E-04 10584   0.275E-03-0.219E-04
CGA:  28    -0.339558460408E+03   -0.51174E-04    0.17715E-03 10584   0.336E-03 0.232E-04
CGA:  29    -0.339558474294E+03   -0.13886E-04   -0.22921E-04 10584   0.215E-03 0.283E-03
CGA:  30    -0.339558474751E+03   -0.45664E-06   -0.88503E-05 10584   0.137E-03 0.160E-03
  11 F= -.33955847E+03 E0= -.33955344E+03  d E =-.461806E-02  mag=    14.0000
       N       E                     dE             d eps       ncg     rms          ort
SDA:   1    -0.331724918705E+03    0.78336E+01    0.00000E+00 10584   0.190E+02 0.000E+00
CGA:   2    -0.337759850987E+03   -0.60349E+01   -0.60326E+01 10584   0.129E+02 0.178E-01
CGA:   3    -0.338365551039E+03   -0.60570E+00   -0.63000E+00 10584   0.894E+01-0.576E+00
CGA:   4    -0.339248559205E+03   -0.88301E+00   -0.88251E+00 10584   0.216E+01 0.351E-01
CGA:   5    -0.339385280572E+03   -0.13672E+00   -0.13708E+00 10584   0.123E+01-0.151E-01
CGA:   6    -0.339493403789E+03   -0.10812E+00   -0.10789E+00 10584   0.270E+00-0.130E-01
CGA:   7    -0.339527006184E+03   -0.33602E-01   -0.33684E-01 10584   0.271E+00-0.248E-02
CGA:   8    -0.339544951632E+03   -0.17945E-01   -0.17996E-01 10584   0.559E-01-0.288E-03
CGA:   9    -0.339552171756E+03   -0.72201E-02   -0.72062E-02 10584   0.728E-01 0.398E-03
CGA:  10    -0.339556761130E+03   -0.45894E-02   -0.46123E-02 10584   0.220E-01-0.216E-03
CGA:  11    -0.339558397073E+03   -0.16359E-02   -0.16792E-02 10584   0.274E-01 0.216E-02
CGA:  12    -0.339561725522E+03   -0.33284E-02   -0.33877E-02 10584   0.170E-01-0.348E-02
CGA:  13    -0.339562483608E+03   -0.75809E-03   -0.81547E-03 10584   0.668E-02 0.145E-02
CGA:  14    -0.339564176513E+03   -0.16929E-02   -0.18011E-02 10584   0.136E-01-0.696E-03
CGA:  15    -0.339564574006E+03   -0.39749E-03   -0.43767E-03 10584   0.309E-02 0.767E-03
CGA:  16    -0.339564900147E+03   -0.32614E-03   -0.32697E-03 10584   0.637E-02-0.494E-03
CGA:  17    -0.339565438345E+03   -0.53820E-03   -0.54383E-03 10584   0.978E-02-0.178E-02
CGA:  18    -0.339565622650E+03   -0.18430E-03   -0.19691E-03 10584   0.340E-02 0.283E-03
CGA:  19    -0.339565666447E+03   -0.43797E-04   -0.83690E-04 10584   0.197E-02 0.580E-03
CGA:  20    -0.339565742182E+03   -0.75735E-04   -0.10908E-03 10584   0.349E-02 0.759E-03
CGA:  21    -0.339566035131E+03   -0.29295E-03   -0.31464E-03 10584   0.332E-02 0.887E-03
CGA:  22    -0.339566224289E+03   -0.18916E-03   -0.18961E-03 10584   0.206E-02-0.344E-04
CGA:  23    -0.339566339936E+03   -0.11565E-03   -0.11850E-03 10584   0.290E-02 0.129E-03
CGA:  24    -0.339566636752E+03   -0.29682E-03   -0.30181E-03 10584   0.503E-02-0.309E-03
CGA:  25    -0.339566843368E+03   -0.20662E-03   -0.17072E-03 10584   0.203E-02-0.946E-03
CGA:  26    -0.339566985080E+03   -0.14171E-03   -0.14297E-03 10584   0.581E-02-0.364E-03
CGA:  27    -0.339567279008E+03   -0.29393E-03   -0.31203E-03 10584   0.490E-02 0.129E-02
CGA:  28    -0.339567426728E+03   -0.14772E-03   -0.19034E-03 10584   0.223E-02 0.124E-02
CGA:  29    -0.339567570284E+03   -0.14356E-03   -0.15242E-03 10584   0.251E-02 0.374E-03
CGA:  30    -0.339567734018E+03   -0.16373E-03   -0.17660E-03 10584   0.321E-02 0.689E-03
CGA:  31    -0.339567836513E+03   -0.10249E-03   -0.15660E-03 10584   0.156E-02 0.144E-02
SDA:  32    -0.339567892447E+03   -0.55934E-04   -0.86475E-04 10584   0.153E-02 0.857E-03
CGA:  33    -0.339565554739E+03    0.23377E-02   -0.12640E-02 10584   0.110E+00-0.775E-02
CGA:  34    -0.339568178753E+03   -0.26240E-02   -0.29994E-02 10584   0.512E-02 0.379E-02
CGA:  35    -0.339568372126E+03   -0.19337E-03   -0.23539E-03 10584   0.128E-02 0.461E-03
CGA:  36    -0.339568449137E+03   -0.77010E-04   -0.10013E-03 10584   0.665E-03 0.434E-03
CGA:  37    -0.339568447778E+03    0.13583E-05   -0.30353E-04 10584   0.203E-03 0.360E-03
CGA:  38    -0.339568477468E+03   -0.29689E-04   -0.27546E-04 10584   0.347E-03 0.119E-03
CGA:  39    -0.339568486819E+03   -0.93509E-05   -0.15038E-04 10584   0.202E-03 0.758E-04
CGA:  40    -0.339568541070E+03   -0.54252E-04   -0.43323E-04 10584   0.444E-03 0.180E-03
CGA:  41    -0.339568548427E+03   -0.73574E-05   -0.15408E-04 10584   0.137E-03 0.967E-04
CGA:  42    -0.339568565647E+03   -0.17219E-04   -0.17932E-04 10584   0.312E-03 0.108E-03
CGA:  43    -0.339568580123E+03   -0.14476E-04   -0.15631E-04 10584   0.178E-03 0.180E-04
CGA:  44    -0.339568595670E+03   -0.15547E-04   -0.17975E-04 10584   0.197E-03 0.163E-03
CGA:  45    -0.339568607857E+03   -0.12188E-04   -0.13503E-04 10584   0.177E-03 0.320E-04
CGA:  46    -0.339568641136E+03   -0.33279E-04   -0.28013E-04 10584   0.192E-03 0.184E-03
CGA:  47    -0.339568643679E+03   -0.25423E-05   -0.80708E-05 10584   0.975E-04 0.828E-04
  12 F= -.33956864E+03 E0= -.33956436E+03  d E =-.101689E-01  mag=    14.0000
       N       E                     dE             d eps       ncg     rms          ort
SDA:   1    -0.339407244021E+03    0.16140E+00    0.00000E+00 10584   0.519E+00 0.000E+00
CGA:   2    -0.339466806059E+03   -0.59562E-01   -0.59368E-01 10584   0.785E+00 0.110E-01
CGA:   3    -0.339529103311E+03   -0.62297E-01   -0.62067E-01 10584   0.286E+00 0.640E-02
CGA:   4    -0.339545158799E+03   -0.16055E-01   -0.15940E-01 10584   0.139E+00-0.813E-02
CGA:   5    -0.339560298771E+03   -0.15140E-01   -0.15097E-01 10584   0.924E-01 0.416E-02
CGA:   6    -0.339565084688E+03   -0.47859E-02   -0.46576E-02 10584   0.223E-01-0.456E-02
CGA:   7    -0.339567348681E+03   -0.22640E-02   -0.22545E-02 10584   0.119E-01 0.119E-02
CGA:   8    -0.339568188032E+03   -0.83935E-03   -0.76486E-03 10584   0.880E-02-0.206E-02
CGA:   9    -0.339568662834E+03   -0.47480E-03   -0.50289E-03 10584   0.236E-02 0.100E-02
CGA:  10    -0.339568894421E+03   -0.23159E-03   -0.23369E-03 10584   0.227E-02 0.315E-03
CGA:  11    -0.339569176235E+03   -0.28181E-03   -0.28961E-03 10584   0.266E-02-0.460E-03
CGA:  12    -0.339569208187E+03   -0.31953E-04   -0.70576E-04 10584   0.974E-03 0.615E-03
CGA:  13    -0.339569222061E+03   -0.13873E-04   -0.38961E-04 10584   0.734E-03 0.417E-03
CGA:  14    -0.339569305834E+03   -0.83774E-04   -0.85987E-04 10584   0.142E-02 0.279E-03
CGA:  15    -0.339569419903E+03   -0.11407E-03   -0.11443E-03 10584   0.627E-03 0.813E-05
CGA:  16    -0.339569421956E+03   -0.20529E-05   -0.16806E-04 10584   0.364E-03 0.241E-03
CGA:  17    -0.339569422525E+03   -0.56937E-06   -0.16714E-04 10584   0.442E-03 0.312E-03
CGA:  18    -0.339569461749E+03   -0.39224E-04   -0.46472E-04 10584   0.170E-02-0.320E-03
CGA:  19    -0.339569477139E+03   -0.15390E-04   -0.37589E-04 10584   0.171E-03 0.362E-03
CGA:  20    -0.339569476742E+03    0.39707E-06   -0.54259E-05 10584   0.139E-03 0.107E-03
CGA:  21    -0.339569454591E+03    0.22151E-04   -0.20626E-04 10584   0.580E-02-0.238E-03
CGA:  22    -0.339569528568E+03   -0.73977E-04   -0.13464E-03 10584   0.135E-03 0.538E-03
CGA:  23    -0.339569525417E+03    0.31513E-05   -0.44341E-05 10584   0.996E-04 0.717E-04
CGA:  24    -0.339569414159E+03    0.11126E-03   -0.63664E-04 10584   0.105E-01-0.272E-03
CGA:  25    -0.339569569542E+03   -0.15538E-03   -0.25162E-03 10584   0.153E-03 0.546E-03
CGA:  26    -0.339569565719E+03    0.38233E-05   -0.89371E-05 10584   0.169E-03 0.742E-04
CGA:  27    -0.339569596976E+03   -0.31257E-04   -0.36791E-04 10584   0.117E-03 0.774E-04
CGA:  28    -0.339569590106E+03    0.68697E-05   -0.98208E-05 10584   0.105E-03 0.107E-03
CGA:  29    -0.339569599207E+03   -0.91003E-05   -0.44148E-04 10584   0.292E-02-0.165E-03
CGA:  30    -0.339569622407E+03   -0.23200E-04   -0.75347E-04 10584   0.116E-03 0.317E-03
CGA:  31    -0.339569619251E+03    0.31554E-05   -0.48576E-05 10584   0.858E-04 0.472E-04
CGA:  32    -0.339569624040E+03   -0.47884E-05   -0.12337E-04 10584   0.193E-03 0.776E-04
  13 F= -.33956962E+03 E0= -.33956544E+03  d E =-.980361E-03  mag=    14.0000
       N       E                     dE             d eps       ncg     rms          ort
SDA:   1    -0.339508702947E+03    0.60916E-01    0.00000E+00 10584   0.227E+00 0.000E+00
CGA:   2    -0.339523859202E+03   -0.15156E-01   -0.15033E-01 10584   0.279E+00 0.556E-02
CGA:   3    -0.339560013395E+03   -0.36154E-01   -0.35938E-01 10584   0.859E-01-0.497E-02
CGA:   4    -0.339563941576E+03   -0.39282E-02   -0.40469E-02 10584   0.430E-01 0.471E-02
CGA:   5    -0.339570853478E+03   -0.69119E-02   -0.69102E-02 10584   0.863E-02-0.137E-03
CGA:   6    -0.339571482499E+03   -0.62902E-03   -0.69061E-03 10584   0.546E-02 0.715E-03
CGA:   7    -0.339572142297E+03   -0.65980E-03   -0.62872E-03 10584   0.412E-02-0.536E-03
CGA:   8    -0.339572234529E+03   -0.92232E-04   -0.14504E-03 10584   0.136E-02 0.446E-03
CGA:   9    -0.339572375143E+03   -0.14061E-03   -0.15473E-03 10584   0.139E-02 0.261E-03
CGA:  10    -0.339572508598E+03   -0.13345E-03   -0.95812E-04 10584   0.109E-02-0.402E-03
CGA:  11    -0.339572542402E+03   -0.33805E-04   -0.45583E-04 10584   0.516E-03 0.132E-03
CGA:  12    -0.339572546476E+03   -0.40734E-05   -0.24921E-04 10584   0.457E-03 0.205E-03
CGA:  13    -0.339572608634E+03   -0.62158E-04   -0.65727E-04 10584   0.313E-03 0.967E-04
CGA:  14    -0.339572651269E+03   -0.42635E-04   -0.34012E-04 10584   0.692E-03-0.180E-03
CGA:  15    -0.339572646443E+03    0.48260E-05   -0.16213E-04 10584   0.130E-03 0.187E-03
  14 F= -.33957265E+03 E0= -.33956854E+03  d E =-.302240E-02  mag=    14.0000
       N       E                     dE             d eps       ncg     rms          ort
SDA:   1    -0.338866802393E+03    0.70585E+00    0.00000E+00 10584   0.181E+01 0.000E+00
CGA:   2    -0.339196680210E+03   -0.32988E+00   -0.33012E+00 10584   0.540E+01 0.145E-02
CGA:   3    -0.339464271924E+03   -0.26759E+00   -0.27511E+00 10584   0.492E+00-0.162E+00
CGA:   4    -0.339545816029E+03   -0.81544E-01   -0.81353E-01 10584   0.331E+00 0.400E-02
CGA:   5    -0.339560794160E+03   -0.14978E-01   -0.14473E-01 10584   0.102E+00-0.116E-01
CGA:   6    -0.339569762604E+03   -0.89684E-02   -0.90004E-02 10584   0.470E-01 0.171E-02
CGA:   7    -0.339573086884E+03   -0.33243E-02   -0.32599E-02 10584   0.228E-01-0.213E-02
CGA:   8    -0.339574745680E+03   -0.16588E-02   -0.17201E-02 10584   0.146E-01 0.158E-02
CGA:   9    -0.339575956009E+03   -0.12103E-02   -0.11503E-02 10584   0.654E-02-0.151E-02
CGA:  10    -0.339576270689E+03   -0.31468E-03   -0.37267E-03 10584   0.243E-02 0.114E-02
CGA:  11    -0.339576617083E+03   -0.34639E-03   -0.35243E-03 10584   0.512E-02-0.529E-03
CGA:  12    -0.339576798293E+03   -0.18121E-03   -0.21809E-03 10584   0.210E-02 0.643E-03
CGA:  13    -0.339576853351E+03   -0.55058E-04   -0.80670E-04 10584   0.950E-03 0.350E-03
CGA:  14    -0.339576979650E+03   -0.12630E-03   -0.12982E-03 10584   0.289E-02-0.310E-03
CGA:  15    -0.339577073995E+03   -0.94345E-04   -0.88562E-04 10584   0.348E-02-0.987E-04
CGA:  16    -0.339577135544E+03   -0.61549E-04   -0.85069E-04 10584   0.111E-02 0.308E-03
CGA:  17    -0.339577140283E+03   -0.47398E-05   -0.25541E-04 10584   0.532E-03 0.267E-03
CGA:  18    -0.339577145397E+03   -0.51132E-05   -0.20441E-04 10584   0.637E-03 0.238E-03
CGA:  19    -0.339577186580E+03   -0.41184E-04   -0.51851E-04 10584   0.102E-02 0.297E-03
CGA:  20    -0.339577251905E+03   -0.65325E-04   -0.69686E-04 10584   0.421E-03 0.977E-04
CGA:  21    -0.339577263824E+03   -0.11919E-04   -0.14351E-04 10584   0.201E-03 0.436E-04
CGA:  22    -0.339577274220E+03   -0.10396E-04   -0.12112E-04 10584   0.351E-03 0.567E-04
CGA:  23    -0.339577324371E+03   -0.50152E-04   -0.49675E-04 10584   0.593E-03 0.208E-04
CGA:  24    -0.339577348095E+03   -0.23724E-04   -0.25201E-04 10584   0.320E-03 0.307E-04
CGA:  25    -0.339577347871E+03    0.22479E-06   -0.95473E-05 10584   0.301E-03 0.180E-03
CGA:  26    -0.339577350734E+03   -0.28634E-05   -0.11810E-04 10584   0.190E-03 0.219E-03
CGA:  27    -0.339577362627E+03   -0.11893E-04   -0.13113E-04 10584   0.119E-03 0.135E-03
CGA:  28    -0.339577360544E+03    0.20824E-05   -0.31700E-05 10584   0.966E-04 0.103E-03
  15 F= -.33957736E+03 E0= -.33957342E+03  d E =-.471410E-02  mag=    14.0000
       N       E                     dE             d eps       ncg     rms          ort
SDA:   1    -0.315319087811E+03    0.24258E+02    0.00000E+00 10584   0.599E+02 0.000E+00
CGA:   2    -0.332253606331E+03   -0.16935E+02   -0.16151E+02 10584   0.531E+02 0.485E+01
CGA:   3    -0.335940667277E+03   -0.36871E+01   -0.35754E+01 10584   0.216E+02-0.766E+00
CGA:   4    -0.337518519892E+03   -0.15779E+01   -0.15026E+01 10584   0.281E+02-0.224E+01
CGA:   5    -0.338220991619E+03   -0.70247E+00   -0.78588E+00 10584   0.327E+02-0.375E+01
CGA:   6    -0.338809330397E+03   -0.58834E+00   -0.73085E+00 10584   0.931E+01-0.642E+01
CGA:   7    -0.339062419422E+03   -0.25309E+00   -0.23134E+00 10584   0.564E+01 0.361E+00
CGA:   8    -0.339194408266E+03   -0.13199E+00   -0.11572E+00 10584   0.284E+01 0.631E+00
CGA:   9    -0.339267027477E+03   -0.72619E-01   -0.67903E-01 10584   0.244E+01 0.202E+00
CGA:  10    -0.339340005792E+03   -0.72978E-01   -0.72035E-01 10584   0.337E+01 0.166E-01
CGA:  11    -0.339414354383E+03   -0.74349E-01   -0.76465E-01 10584   0.226E+01-0.165E+00
CGA:  12    -0.339450393908E+03   -0.36040E-01   -0.43186E-01 10584   0.137E+01-0.349E+00
CGA:  13    -0.339474037003E+03   -0.23643E-01   -0.23768E-01 10584   0.833E+00 0.209E-02
CGA:  14    -0.339489662059E+03   -0.15625E-01   -0.16973E-01 10584   0.527E+00-0.516E-03
CGA:  15    -0.339503502387E+03   -0.13840E-01   -0.14423E-01 10584   0.617E+00 0.161E-01
CGA:  16    -0.339525211593E+03   -0.21709E-01   -0.22346E-01 10584   0.680E+00-0.138E-02
CGA:  17    -0.339540746563E+03   -0.15535E-01   -0.16351E-01 10584   0.310E+00-0.454E-01
CGA:  18    -0.339548371453E+03   -0.76249E-02   -0.80816E-02 10584   0.169E+00-0.138E-01
CGA:  19    -0.339553244343E+03   -0.48729E-02   -0.50216E-02 10584   0.131E+00 0.580E-02
CGA:  20    -0.339559637022E+03   -0.63927E-02   -0.64111E-02 10584   0.168E+00 0.345E-02
CGA:  21    -0.339566896953E+03   -0.72599E-02   -0.71372E-02 10584   0.104E+00-0.147E-01
CGA:  22    -0.339570289361E+03   -0.33924E-02   -0.32338E-02 10584   0.627E-01-0.139E-01
CGA:  23    -0.339572525210E+03   -0.22358E-02   -0.22390E-02 10584   0.469E-01-0.341E-03
CGA:  24    -0.339574263555E+03   -0.17383E-02   -0.18184E-02 10584   0.383E-01 0.720E-02
CGA:  25    -0.339576249117E+03   -0.19856E-02   -0.20029E-02 10584   0.245E-01 0.409E-02
CGA:  26    -0.339577485606E+03   -0.12365E-02   -0.12218E-02 10584   0.165E-01-0.394E-02
CGA:  27    -0.339578208349E+03   -0.72274E-03   -0.72339E-03 10584   0.133E-01-0.231E-03
CGA:  28    -0.339578666232E+03   -0.45788E-03   -0.48752E-03 10584   0.887E-02 0.250E-02
CGA:  29    -0.339579283071E+03   -0.61684E-03   -0.61794E-03 10584   0.958E-02-0.109E-03
CGA:  30    -0.339579717086E+03   -0.43402E-03   -0.89110E-03 10584   0.243E-01-0.102E-01
CGA:  31    -0.339580303072E+03   -0.58599E-03   -0.66952E-03 10584   0.252E-02 0.363E-02
CGA:  32    -0.339580461510E+03   -0.15844E-03   -0.15457E-03 10584   0.239E-02 0.117E-02
CGA:  33    -0.339580780387E+03   -0.31888E-03   -0.29411E-03 10584   0.157E-02 0.728E-03
CGA:  34    -0.339580859418E+03   -0.79031E-04   -0.87013E-04 10584   0.758E-03 0.855E-03
CGA:  35    -0.339580944685E+03   -0.85267E-04    0.20915E-03 10584   0.503E-03 0.472E-03
CGA:  36    -0.339581006696E+03   -0.62011E-04    0.64979E-04 10584   0.412E-03 0.394E-03
CGA:  37    -0.339581050539E+03   -0.43843E-04    0.29966E-03 10584   0.368E-03 0.357E-03
CGA:  38    -0.339581095260E+03   -0.44721E-04    0.52359E-04 10584   0.344E-03 0.336E-03
CGA:  39    -0.339581222025E+03   -0.12676E-03   -0.82429E-04 10584   0.630E-03 0.237E-03
CGA:  40    -0.339580954870E+03    0.26715E-03   -0.14549E-03 10584   0.201E-01-0.244E-02
CGA:  41    -0.339581352161E+03   -0.39729E-03   -0.49049E-03 10584   0.502E-03 0.226E-02
CGA:  42    -0.339581362233E+03   -0.10072E-04   -0.16211E-04 10584   0.241E-03 0.162E-03
CGA:  43    -0.339581352047E+03    0.10186E-04   -0.25471E-04 10584   0.971E-02-0.418E-03
CGA:  44    -0.339581640509E+03   -0.28846E-03   -0.29467E-03 10584   0.200E-03 0.746E-04
CGA:  45    -0.339581636486E+03    0.40230E-05   -0.81148E-05 10584   0.167E-03 0.164E-03
CGA:  46    -0.339581688291E+03   -0.51805E-04   -0.42597E-04 10584   0.612E-03 0.648E-04
CGA:  47    -0.339581708839E+03   -0.20548E-04   -0.49986E-04 10584   0.208E-03 0.506E-03
CGA:  48    -0.339581790795E+03   -0.81956E-04    0.16905E-04 10584   0.281E-03 0.704E-04
CGA:  49    -0.339581809856E+03   -0.19061E-04   -0.25324E-04 10584   0.207E-03 0.133E-03
CGA:  50    -0.339581879497E+03   -0.69640E-04    0.13146E-02 10584   0.174E-03 0.277E-03
CGA:  51    -0.339581883498E+03   -0.40011E-05   -0.10730E-04 10584   0.118E-03 0.132E-03
  16 F= -.33958188E+03 E0= -.33957840E+03  d E =-.452295E-02  mag=    14.0000
       N       E                     dE             d eps       ncg     rms          ort
SDA:   1    -0.326098983763E+03    0.13483E+02    0.00000E+00 10584   0.461E+02 0.000E+00
CGA:   2    -0.329143282242E+03   -0.30443E+01   -0.35050E+01 10584   0.520E+02 0.701E+00
CGA:   3    -0.334878689714E+03   -0.57354E+01   -0.63199E+01 10584   0.716E+02-0.239E+02
CGA:   4    -0.336563684514E+03   -0.16850E+01   -0.15548E+01 10584   0.119E+02-0.449E+00
CGA:   5    -0.336927632190E+03   -0.36395E+00   -0.41549E+00 10584   0.134E+02-0.145E+01
CGA:   6    -0.337999758333E+03   -0.10721E+01   -0.10722E+01 10584   0.937E+01 0.770E-02
CGA:   7    -0.338173996677E+03   -0.17424E+00   -0.18475E+00 10584   0.152E+01-0.568E+00
CGA:   8    -0.338358164972E+03   -0.18417E+00   -0.18093E+00 10584   0.336E+01 0.717E-01
CGA:   9    -0.338474973328E+03   -0.11681E+00   -0.13219E+00 10584   0.998E+00-0.352E+00
CGA:  10    -0.338505659761E+03   -0.30686E-01   -0.31174E-01 10584   0.556E+00-0.187E-02
CGA:  11    -0.338580658092E+03   -0.74998E-01   -0.74001E-01 10584   0.381E+00 0.188E-01
CGA:  12    -0.338596324121E+03   -0.15666E-01   -0.17036E-01 10584   0.243E+00-0.298E-01
CGA:  13    -0.338616132798E+03   -0.19809E-01   -0.19820E-01 10584   0.284E+00 0.424E-02
CGA:  14    -0.338630436126E+03   -0.14303E-01   -0.15294E-01 10584   0.974E-01-0.701E-02
CGA:  15    -0.338636859238E+03   -0.64231E-02   -0.64032E-02 10584   0.669E-01-0.276E-02
CGA:  16    -0.338644538389E+03   -0.76792E-02   -0.76155E-02 10584   0.321E-01 0.176E-02
CGA:  17    -0.338647231679E+03   -0.26933E-02   -0.26799E-02 10584   0.325E-01-0.223E-02
CGA:  18    -0.338650222527E+03   -0.29908E-02   -0.29796E-02 10584   0.133E-01 0.110E-02
CGA:  19    -0.338651497437E+03   -0.12749E-02   -0.12741E-02 10584   0.157E-01 0.724E-04
CGA:  20    -0.338653413873E+03   -0.19164E-02   -0.19330E-02 10584   0.214E-01-0.492E-03
CGA:  21    -0.338654584713E+03   -0.11708E-02   -0.12059E-02 10584   0.732E-02 0.622E-03
CGA:  22    -0.338656489722E+03   -0.19050E-02   -0.22053E-02 10584   0.384E-01-0.139E-02
CGA:  23    -0.338657959332E+03   -0.14696E-02   -0.15050E-02 10584   0.134E-01 0.282E-02
CGA:  24    -0.338658494465E+03   -0.53513E-03   -0.62443E-03 10584   0.121E-01 0.170E-02
CGA:  25    -0.338660281175E+03   -0.17867E-02   -0.17071E-02 10584   0.302E-01 0.252E-02
CGA:  26    -0.338662476212E+03   -0.21950E-02   -0.22490E-02 10584   0.173E-01 0.190E-02
CGA:  27    -0.338663325849E+03   -0.84964E-03   -0.94487E-03 10584   0.953E-02 0.223E-02
CGA:  28    -0.338664301693E+03   -0.97584E-03   -0.97827E-03 10584   0.191E-01 0.241E-02
CGA:  29    -0.338666442182E+03   -0.21405E-02   -0.21415E-02 10584   0.922E-02 0.111E-02
CGA:  30    -0.338667171920E+03   -0.72974E-03   -0.74160E-03 10584   0.112E-01 0.557E-03
CGA:  31    -0.338668041106E+03   -0.86919E-03   -0.92668E-03 10584   0.722E-02 0.430E-02
SDA:  32    -0.338668542410E+03   -0.50130E-03   -0.58947E-03 10584   0.535E-02 0.297E-02
CGA:  33    -0.338668928559E+03   -0.38615E-03   -0.35946E-03 10584   0.643E-02-0.128E-02
CGA:  34    -0.338669684763E+03   -0.75620E-03   -0.67781E-03 10584   0.335E-02 0.152E-02
CGA:  35    -0.338669767743E+03   -0.82979E-04   -0.14080E-03 10584   0.955E-03 0.101E-02
CGA:  36    -0.338669906061E+03   -0.13832E-03   -0.12579E-03 10584   0.151E-02 0.907E-03
CGA:  37    -0.338670021574E+03   -0.11551E-03   -0.10560E-03 10584   0.214E-02-0.556E-03
CGA:  38    -0.338670243861E+03   -0.22229E-03   -0.17893E-03 10584   0.295E-02 0.955E-03
CGA:  39    -0.338670346460E+03   -0.10260E-03   -0.16816E-03 10584   0.642E-03 0.129E-02
CGA:  40    -0.338670507300E+03   -0.16084E-03   -0.12399E-03 10584   0.753E-03 0.771E-03
CGA:  41    -0.338670571836E+03   -0.64536E-04   -0.62973E-04 10584   0.186E-02-0.281E-03
CGA:  42    -0.338670779339E+03   -0.20750E-03   -0.17298E-03 10584   0.568E-02 0.563E-03
CGA:  43    -0.338671050610E+03   -0.27127E-03   -0.34435E-03 10584   0.143E-02 0.167E-02
CGA:  44    -0.338671197857E+03   -0.14725E-03   -0.15268E-03 10584   0.152E-02 0.766E-03
CGA:  45    -0.338671293622E+03   -0.95765E-04   -0.82646E-04 10584   0.121E-02-0.386E-03
CGA:  46    -0.338671452408E+03   -0.15879E-03   -0.14398E-03 10584   0.112E-02 0.200E-03
CGA:  47    -0.338671484193E+03   -0.31785E-04   -0.54727E-04 10584   0.392E-03 0.460E-03
CGA:  48    -0.338671583296E+03   -0.99103E-04   -0.83203E-04 10584   0.133E-02 0.253E-03
CGA:  49    -0.338671655511E+03   -0.72215E-04   -0.64836E-04 10584   0.563E-03-0.178E-03
CGA:  50    -0.338671704388E+03   -0.48877E-04   -0.47641E-04 10584   0.810E-03 0.152E-03
CGA:  51    -0.338671862683E+03   -0.15830E-03   -0.14212E-03 10584   0.887E-03 0.325E-03
CGA:  52    -0.338672227007E+03   -0.36432E-03   -0.32733E-03 10584   0.360E-02 0.190E-03
CGA:  53    -0.338673401955E+03   -0.11749E-02   -0.93227E-03 10584   0.548E-02 0.183E-02
CGA:  54    -0.338673640867E+03   -0.23891E-03   -0.19966E-03 10584   0.121E-02-0.620E-03
CGA:  55    -0.338673754735E+03   -0.11387E-03   -0.11335E-03 10584   0.920E-03 0.187E-03
CGA:  56    -0.338673805988E+03   -0.51253E-04   -0.59640E-04 10584   0.274E-03 0.173E-03
CGA:  57    -0.338673857626E+03   -0.51638E-04   -0.76441E-04 10584   0.218E-02-0.189E-03
CGA:  58    -0.338673897220E+03   -0.39594E-04   -0.60984E-04 10584   0.216E-03 0.262E-03
CGA:  59    -0.338673904410E+03   -0.71897E-05   -0.13394E-04 10584   0.241E-03 0.128E-03
CGA:  60    -0.338673165302E+03    0.73911E-03   -0.39913E-03 10584   0.350E-01-0.162E-02
CGA:  61    -0.338674058517E+03   -0.89322E-03   -0.10231E-02 10584   0.529E-03 0.112E-02
CGA:  62    -0.338674067286E+03   -0.87689E-05   -0.21996E-04 10584   0.213E-03 0.967E-04
CGA:  63    -0.338674123304E+03   -0.56018E-04   -0.57149E-04 10584   0.100E-02-0.219E-04
CGA:  64    -0.338674178458E+03   -0.55154E-04   -0.61541E-04 10584   0.786E-03 0.549E-04
CGA:  65    -0.338674201628E+03   -0.23170E-04   -0.36205E-04 10584   0.659E-03 0.105E-03
CGA:  66    -0.338674327345E+03   -0.12572E-03   -0.12458E-03 10584   0.359E-02 0.200E-03
CGA:  67    -0.338675460697E+03   -0.11334E-02   -0.11161E-02 10584   0.751E-02-0.191E-03
CGA:  68    -0.338675774530E+03   -0.31383E-03   -0.32816E-03 10584   0.199E-02-0.417E-03
CGA:  69    -0.338675938805E+03   -0.16427E-03   -0.18115E-03 10584   0.373E-02 0.166E-03
CGA:  70    -0.338676489125E+03   -0.55032E-03   -0.52796E-03 10584   0.386E-03-0.995E-03
CGA:  71    -0.338676496544E+03   -0.74193E-05   -0.13479E-04 10584   0.318E-03 0.525E-04
CGA:  72    -0.338676526716E+03   -0.30171E-04   -0.39889E-04 10584   0.305E-03 0.239E-03
CGA:  73    -0.338676536192E+03   -0.94761E-05   -0.15130E-04 10584   0.213E-03 0.558E-04
CGA:  74    -0.338676541108E+03   -0.49158E-05   -0.18341E-04 10584   0.211E-03 0.190E-03
CGA:  75    -0.338676552027E+03   -0.10919E-04   -0.13941E-04 10584   0.177E-03 0.409E-04
CGA:  76    -0.338676561233E+03   -0.92066E-05   -0.18060E-04 10584   0.181E-03 0.177E-03
  17 F= -.33867656E+03 E0= -.33867291E+03  d E =0.905322E+00  mag=    14.0000
       N       E                     dE             d eps       ncg     rms          ort
SDA:   1    -0.336968452563E+03    0.17081E+01    0.00000E+00 10584   0.604E+01 0.000E+00
CGA:   2    -0.338029421885E+03   -0.10610E+01   -0.10602E+01 10584   0.152E+02 0.489E-01
CGA:   3    -0.338914487263E+03   -0.88507E+00   -0.89810E+00 10584   0.209E+01-0.568E+00
CGA:   4    -0.339089320104E+03   -0.17483E+00   -0.17111E+00 10584   0.223E+01-0.577E-02
CGA:   5    -0.339274899592E+03   -0.18558E+00   -0.18608E+00 10584   0.535E+00-0.143E-02
CGA:   6    -0.339299586959E+03   -0.24687E-01   -0.25083E-01 10584   0.249E+00-0.175E-01
CGA:   7    -0.339335448455E+03   -0.35861E-01   -0.35760E-01 10584   0.970E-01 0.318E-02
CGA:   8    -0.339341567770E+03   -0.61193E-02   -0.60475E-02 10584   0.721E-01-0.280E-02
CGA:   9    -0.339348861097E+03   -0.72933E-02   -0.72978E-02 10584   0.418E-01 0.201E-03
CGA:  10    -0.339351402729E+03   -0.25416E-02   -0.25271E-02 10584   0.227E-01-0.161E-03
CGA:  11    -0.339354968823E+03   -0.35661E-02   -0.36645E-02 10584   0.326E-01-0.213E-02
CGA:  12    -0.339356247058E+03   -0.12782E-02   -0.13192E-02 10584   0.532E-02 0.562E-03
CGA:  13    -0.339357622029E+03   -0.13750E-02   -0.13839E-02 10584   0.103E-01-0.699E-04
CGA:  14    -0.339358247007E+03   -0.62498E-03   -0.53142E-03 10584   0.282E-02-0.147E-02
CGA:  15    -0.339358498259E+03   -0.25125E-03   -0.25386E-03 10584   0.299E-02 0.218E-03
CGA:  16    -0.339358949621E+03   -0.45136E-03   -0.54673E-03 10584   0.619E-02-0.179E-02
CGA:  17    -0.339359121560E+03   -0.17194E-03   -0.21614E-03 10584   0.776E-03 0.550E-03
CGA:  18    -0.339359273822E+03   -0.15226E-03   -0.17465E-03 10584   0.350E-02-0.245E-03
CGA:  19    -0.339359409174E+03   -0.13535E-03   -0.12452E-03 10584   0.245E-02-0.161E-03
CGA:  20    -0.339359487633E+03   -0.78459E-04   -0.73198E-04 10584   0.106E-02-0.731E-04
CGA:  21    -0.339359607781E+03   -0.12015E-03   -0.13516E-03 10584   0.575E-02-0.761E-03
CGA:  22    -0.339359865879E+03   -0.25810E-03   -0.23784E-03 10584   0.668E-03-0.338E-03
CGA:  23    -0.339359949047E+03   -0.83168E-04   -0.79952E-04 10584   0.846E-03 0.178E-03
CGA:  24    -0.339360005751E+03   -0.56704E-04   -0.23545E-03 10584   0.955E-02-0.163E-02
CGA:  25    -0.339360204045E+03   -0.19829E-03   -0.26126E-03 10584   0.510E-03 0.790E-03
CGA:  26    -0.339360230268E+03   -0.26222E-04   -0.34220E-04 10584   0.521E-03 0.162E-03
CGA:  27    -0.339359217979E+03    0.10123E-02   -0.54919E-03 10584   0.209E-01-0.249E-02
CGA:  28    -0.339359857060E+03   -0.63908E-03   -0.74265E-03 10584   0.485E-02 0.858E-03
CGA:  29    -0.339360684603E+03   -0.82754E-03   -0.82093E-03 10584   0.517E-02-0.243E-03
CGA:  30    -0.339360922080E+03   -0.23748E-03   -0.19653E-03 10584   0.498E-03-0.300E-03
CGA:  31    -0.339360934982E+03   -0.12902E-04   -0.26335E-04 10584   0.320E-03 0.106E-03
CGA:  32    -0.339360994473E+03   -0.59491E-04   -0.61242E-04 10584   0.326E-03 0.101E-03
CGA:  33    -0.339361065474E+03   -0.71001E-04   -0.54335E-04 10584   0.186E-02-0.358E-03
CGA:  34    -0.339361101010E+03   -0.35536E-04   -0.55434E-04 10584   0.233E-03 0.140E-03
CGA:  35    -0.339361147273E+03   -0.46264E-04   -0.65955E-04 10584   0.175E-02-0.199E-03
CGA:  36    -0.339361256677E+03   -0.10940E-03   -0.73918E-04 10584   0.306E-03-0.309E-03
CGA:  37    -0.339361254821E+03    0.18557E-05   -0.12367E-04 10584   0.135E-03 0.124E-03
CGA:  38    -0.339361259550E+03   -0.47287E-05   -0.13319E-04 10584   0.161E-03 0.981E-04
CGA:  39    -0.339361314980E+03   -0.55430E-04    0.96878E-04 10584   0.126E-02-0.199E-03
CGA:  40    -0.339361318829E+03   -0.38491E-05   -0.32960E-04 10584   0.110E-03 0.234E-03
  18 F= -.33936132E+03 E0= -.33935757E+03  d E =-.684758E+00  mag=    14.0000
       N       E                     dE             d eps       ncg     rms          ort
SDA:   1    -0.338705693666E+03    0.65562E+00    0.00000E+00 10584   0.253E+01 0.000E+00
CGA:   2    -0.338922788490E+03   -0.21709E+00   -0.21264E+00 10584   0.410E+01 0.101E-01
CGA:   3    -0.339371734784E+03   -0.44895E+00   -0.44956E+00 10584   0.103E+01-0.430E-02
CGA:   4    -0.339430222303E+03   -0.58488E-01   -0.57399E-01 10584   0.574E+00 0.671E-02
CGA:   5    -0.339499996513E+03   -0.69774E-01   -0.69782E-01 10584   0.400E+00 0.204E-02
CGA:   6    -0.339519100497E+03   -0.19104E-01   -0.18788E-01 10584   0.632E-01-0.129E-02
CGA:   7    -0.339532137808E+03   -0.13037E-01   -0.13129E-01 10584   0.492E-01-0.121E-02
CGA:   8    -0.339534069799E+03   -0.19320E-02   -0.20360E-02 10584   0.203E-01 0.983E-03
CGA:   9    -0.339537166427E+03   -0.30966E-02   -0.31157E-02 10584   0.159E-01-0.871E-03
CGA:  10    -0.339538309124E+03   -0.11427E-02   -0.10983E-02 10584   0.885E-02-0.828E-03
CGA:  11    -0.339539810684E+03   -0.15016E-02   -0.15094E-02 10584   0.823E-02-0.160E-03
CGA:  12    -0.339540266226E+03   -0.45554E-03   -0.40383E-03 10584   0.380E-02-0.732E-03
CGA:  13    -0.339540961006E+03   -0.69478E-03   -0.96732E-03 10584   0.142E-01-0.180E-02
CGA:  14    -0.339541161907E+03   -0.20090E-03   -0.19429E-03 10584   0.507E-02-0.167E-03
CGA:  15    -0.339541269695E+03   -0.10779E-03   -0.12081E-03 10584   0.278E-02 0.779E-04
CGA:  16    -0.339541526474E+03   -0.25678E-03   -0.24756E-03 10584   0.922E-02-0.288E-03
CGA:  17    -0.339542009676E+03   -0.48320E-03   -0.38630E-03 10584   0.810E-02-0.124E-02
CGA:  18    -0.339542265998E+03   -0.25632E-03   -0.17726E-03 10584   0.393E-02-0.789E-03
CGA:  19    -0.339542414983E+03   -0.14898E-03   -0.11423E-03 10584   0.320E-02-0.484E-03
CGA:  20    -0.339542552700E+03   -0.13772E-03   -0.12254E-03 10584   0.527E-02-0.267E-03
CGA:  21    -0.339542999865E+03   -0.44717E-03   -0.43604E-03 10584   0.181E-01-0.908E-03
CGA:  22    -0.339543690185E+03   -0.69032E-03   -0.50573E-03 10584   0.959E-02-0.104E-02
CGA:  23    -0.339543978123E+03   -0.28794E-03   -0.18591E-03 10584   0.395E-02-0.751E-03
CGA:  24    -0.339544298368E+03   -0.32025E-03   -0.25938E-03 10584   0.165E-01-0.230E-02
CGA:  25    -0.339544735568E+03   -0.43720E-03   -0.48216E-03 10584   0.271E-02 0.700E-03
CGA:  26    -0.339545312805E+03   -0.57724E-03   -0.82214E-03 10584   0.868E-02-0.123E-02
CGA:  27    -0.339545469020E+03   -0.15622E-03   -0.15221E-03 10584   0.407E-02-0.688E-04
CGA:  28    -0.339545559698E+03   -0.90677E-04   -0.11261E-03 10584   0.173E-02 0.293E-03
CGA:  29    -0.339545615354E+03   -0.55656E-04   -0.79918E-04 10584   0.208E-02 0.461E-03
CGA:  30    -0.339545755414E+03   -0.14006E-03   -0.16207E-03 10584   0.198E-02 0.707E-03
CGA:  31    -0.339545855120E+03   -0.99706E-04   -0.10797E-03 10584   0.568E-03 0.154E-03
CGA:  32    -0.339545932221E+03   -0.77102E-04   -0.83365E-04 10584   0.202E-02-0.132E-03
CGA:  33    -0.339546060131E+03   -0.12791E-03   -0.12304E-03 10584   0.286E-02-0.444E-03
CGA:  34    -0.339546151675E+03   -0.91544E-04   -0.73558E-04 10584   0.143E-02-0.313E-03
CGA:  35    -0.339546214192E+03   -0.62517E-04   -0.58398E-04 10584   0.191E-02-0.101E-03
CGA:  36    -0.339546352158E+03   -0.13797E-03   -0.13955E-03 10584   0.459E-02 0.247E-03
CGA:  37    -0.339546630539E+03   -0.27838E-03   -0.29672E-03 10584   0.297E-02 0.679E-03
CGA:  38    -0.339546781181E+03   -0.15064E-03   -0.15177E-03 10584   0.167E-02-0.601E-04
CGA:  39    -0.339547000927E+03   -0.21975E-03   -0.41152E-03 10584   0.129E-01-0.108E-02
CGA:  40    -0.339547416299E+03   -0.41537E-03   -0.47294E-03 10584   0.140E-02 0.125E-02
CGA:  41    -0.339547571734E+03   -0.15543E-03   -0.22621E-03 10584   0.612E-02-0.119E-02
CGA:  42    -0.339547751930E+03   -0.18020E-03   -0.20795E-03 10584   0.630E-03 0.524E-03
CGA:  43    -0.339547815189E+03   -0.63260E-04   -0.74760E-04 10584   0.211E-02-0.530E-03
CGA:  44    -0.339547868834E+03   -0.53645E-04   -0.70447E-04 10584   0.342E-03 0.302E-03
CGA:  45    -0.339547908564E+03   -0.39730E-04   -0.42245E-04 10584   0.950E-03-0.115E-03
CGA:  46    -0.339547970463E+03   -0.61899E-04   -0.12643E-03 10584   0.539E-02-0.571E-03
CGA:  47    -0.339548171117E+03   -0.20065E-03   -0.20701E-03 10584   0.366E-03 0.142E-03
CGA:  48    -0.339548200956E+03   -0.29839E-04   -0.46043E-04 10584   0.226E-02-0.501E-03
CGA:  49    -0.339548234437E+03   -0.33481E-04   -0.55620E-04 10584   0.170E-03 0.322E-03
CGA:  50    -0.339548238838E+03   -0.44009E-05   -0.75973E-05 10584   0.119E-03 0.648E-04
CGA:  51    -0.339548242530E+03   -0.36918E-05   -0.46793E-04 10584   0.236E-02-0.220E-03
CGA:  52    -0.339548316529E+03   -0.74000E-04   -0.81910E-04 10584   0.179E-03 0.138E-03
CGA:  53    -0.339548322380E+03   -0.58501E-05   -0.28435E-04 10584   0.183E-02-0.398E-03
CGA:  54    -0.339548351686E+03   -0.29307E-04   -0.48591E-04 10584   0.157E-03 0.275E-03
CGA:  55    -0.339548356910E+03   -0.52241E-05   -0.71309E-05 10584   0.759E-04 0.361E-04
CGA:  56    -0.339548374318E+03   -0.17408E-04    0.96937E-04 10584   0.209E-03 0.349E-04
CGA:  57    -0.339548432904E+03   -0.58586E-04    0.17961E-03 10584   0.256E-03 0.285E-03
CGA:  58    -0.339548435907E+03   -0.30031E-05   -0.72912E-05 10584   0.671E-04 0.701E-04
  19 F= -.33954844E+03 E0= -.33954472E+03  d E =-.187117E+00  mag=    14.0000
       N       E                     dE             d eps       ncg     rms          ort
SDA:   1    -0.339244595324E+03    0.30384E+00    0.00000E+00 10584   0.160E+01 0.000E+00
CGA:   2    -0.339316914647E+03   -0.72319E-01   -0.71291E-01 10584   0.108E+01 0.233E-01
CGA:   3    -0.339517102084E+03   -0.20019E+00   -0.20033E+00 10584   0.512E+00-0.184E-02
CGA:   4    -0.339548630757E+03   -0.31529E-01   -0.31588E-01 10584   0.209E+00-0.196E-02
CGA:   5    -0.339572515799E+03   -0.23885E-01   -0.23697E-01 10584   0.231E+00 0.745E-02
CGA:   6    -0.339583826294E+03   -0.11310E-01   -0.11132E-01 10584   0.342E-01-0.833E-02
CGA:   7    -0.339587479891E+03   -0.36536E-02   -0.36464E-02 10584   0.431E-01 0.257E-03
CGA:   8    -0.339590098567E+03   -0.26187E-02   -0.26202E-02 10584   0.995E-02-0.224E-03
CGA:   9    -0.339591207938E+03   -0.11094E-02   -0.11181E-02 10584   0.106E-01-0.340E-03
CGA:  10    -0.339592087306E+03   -0.87937E-03   -0.87600E-03 10584   0.725E-02-0.112E-02
CGA:  11    -0.339592378925E+03   -0.29162E-03   -0.32237E-03 10584   0.268E-02 0.778E-03
CGA:  12    -0.339592908133E+03   -0.52921E-03   -0.93983E-03 10584   0.115E-01-0.178E-02
CGA:  13    -0.339593240772E+03   -0.33264E-03   -0.37838E-03 10584   0.140E-02 0.770E-03
CGA:  14    -0.339593397675E+03   -0.15690E-03   -0.15522E-03 10584   0.163E-02 0.180E-03
CGA:  15    -0.339593589158E+03   -0.19148E-03   -0.30313E-03 10584   0.459E-02-0.161E-02
CGA:  16    -0.339593659789E+03   -0.70632E-04   -0.13128E-03 10584   0.780E-03 0.908E-03
CGA:  17    -0.339593714697E+03   -0.54907E-04   -0.63876E-04 10584   0.921E-03 0.333E-03
CGA:  18    -0.339593858531E+03   -0.14383E-03   -0.18285E-03 10584   0.189E-02-0.866E-03
CGA:  19    -0.339593880059E+03   -0.21527E-04   -0.54122E-04 10584   0.459E-03 0.487E-03
CGA:  20    -0.339593922213E+03   -0.42154E-04   -0.44898E-04 10584   0.729E-03 0.182E-03
CGA:  21    -0.339593905094E+03    0.17119E-04   -0.24075E-03 10584   0.615E-02-0.180E-02
CGA:  22    -0.339594014214E+03   -0.10912E-03   -0.18061E-03 10584   0.124E-02 0.104E-02
CGA:  23    -0.339594133154E+03   -0.11894E-03   -0.12401E-03 10584   0.136E-02 0.496E-03
CGA:  24    -0.339594316494E+03   -0.18334E-03   -0.18440E-03 10584   0.212E-02-0.872E-03
CGA:  25    -0.339594331404E+03   -0.14910E-04   -0.48776E-04 10584   0.247E-03 0.472E-03
CGA:  26    -0.339594332083E+03   -0.67928E-06   -0.93585E-05 10584   0.224E-03 0.143E-03
CGA:  27    -0.339594390084E+03   -0.58001E-04    0.21455E-04 10584   0.413E-03 0.519E-04
CGA:  28    -0.339594540153E+03   -0.15007E-03   -0.14718E-03 10584   0.118E-02 0.136E-04
CGA:  29    -0.339594664509E+03   -0.12436E-03   -0.20551E-03 10584   0.787E-02-0.118E-02
CGA:  30    -0.339594824035E+03   -0.15953E-03   -0.22001E-03 10584   0.112E-02 0.804E-03
CGA:  31    -0.339594946065E+03   -0.12203E-03   -0.12197E-03 10584   0.101E-02 0.485E-03
CGA:  32    -0.339595028556E+03   -0.82491E-04   -0.80270E-04 10584   0.488E-03-0.579E-04
CGA:  33    -0.339595033933E+03   -0.53766E-05   -0.18245E-04 10584   0.166E-03 0.226E-03
CGA:  34    -0.339595040783E+03   -0.68509E-05   -0.11258E-04 10584   0.214E-03 0.928E-04
CGA:  35    -0.339595084796E+03   -0.44012E-04    0.76884E-04 10584   0.687E-03-0.121E-03
CGA:  36    -0.339595086275E+03   -0.14787E-05   -0.15003E-04 10584   0.117E-03 0.193E-03
  20 F= -.33959509E+03 E0= -.33959149E+03  d E =-.466504E-01  mag=    14.0000
       N       E                     dE             d eps       ncg     rms          ort
SDA:   1    -0.339542467823E+03    0.52617E-01    0.00000E+00 10584   0.358E+00 0.000E+00
CGA:   2    -0.339555486229E+03   -0.13018E-01   -0.13320E-01 10584   0.157E+00 0.892E-02
CGA:   3    -0.339590171884E+03   -0.34686E-01   -0.34688E-01 10584   0.458E-01-0.408E-04
CGA:   4    -0.339596075527E+03   -0.59036E-02   -0.58951E-02 10584   0.667E-01 0.923E-04
CGA:   5    -0.339599228349E+03   -0.31528E-02   -0.31931E-02 10584   0.125E-01 0.102E-02
CGA:   6    -0.339600812088E+03   -0.15837E-02   -0.17118E-02 10584   0.181E-01-0.278E-02
CGA:   7    -0.339601227806E+03   -0.41572E-03   -0.49108E-03 10584   0.429E-02 0.146E-02
CGA:   8    -0.339601348904E+03   -0.12110E-03   -0.16895E-03 10584   0.318E-02 0.946E-03
CGA:   9    -0.339601703382E+03   -0.35448E-03   -0.35499E-03 10584   0.334E-02-0.920E-04
CGA:  10    -0.339601912527E+03   -0.20915E-03   -0.16839E-03 10584   0.221E-02-0.122E-02
CGA:  11    -0.339601975119E+03   -0.62592E-04   -0.65820E-04 10584   0.179E-02 0.862E-04
CGA:  12    -0.339602033505E+03   -0.58386E-04   -0.80450E-04 10584   0.153E-02 0.563E-03
CGA:  13    -0.339602187661E+03   -0.15416E-03   -0.15447E-03 10584   0.120E-02 0.860E-04
CGA:  14    -0.339602288623E+03   -0.10096E-03   -0.99143E-04 10584   0.203E-02-0.912E-03
CGA:  15    -0.339602321469E+03   -0.32847E-04   -0.60745E-04 10584   0.466E-03 0.556E-03
CGA:  16    -0.339602363097E+03   -0.41627E-04   -0.42631E-04 10584   0.633E-03 0.171E-03
CGA:  17    -0.339602374605E+03   -0.11509E-04   -0.18109E-03 10584   0.341E-02-0.129E-02
CGA:  18    -0.339602430399E+03   -0.55794E-04   -0.10153E-03 10584   0.745E-03 0.866E-03
CGA:  19    -0.339602484750E+03   -0.54351E-04   -0.60096E-04 10584   0.789E-03 0.339E-03
CGA:  20    -0.339602596762E+03   -0.11201E-03   -0.14651E-03 10584   0.138E-02-0.734E-03
CGA:  21    -0.339602603023E+03   -0.62612E-05   -0.32680E-04 10584   0.265E-03 0.449E-03
  21 F= -.33960260E+03 E0= -.33959912E+03  d E =-.751675E-02  mag=    14.0000
       N       E                     dE             d eps       ncg     rms          ort
SDA:   1    -0.339567435609E+03    0.35161E-01    0.00000E+00 10584   0.186E+00 0.000E+00
CGA:   2    -0.339575589710E+03   -0.81541E-02   -0.83993E-02 10584   0.119E+00 0.105E-01
CGA:   3    -0.339596084860E+03   -0.20495E-01   -0.20458E-01 10584   0.494E-01 0.356E-03
CGA:   4    -0.339599388508E+03   -0.33036E-02   -0.32830E-02 10584   0.428E-01-0.161E-02
CGA:   5    -0.339603320869E+03   -0.39324E-02   -0.39043E-02 10584   0.755E-02 0.187E-02
CGA:   6    -0.339604471525E+03   -0.11507E-02   -0.12172E-02 10584   0.751E-02-0.905E-03
CGA:   7    -0.339604754350E+03   -0.28282E-03   -0.30038E-03 10584   0.229E-02 0.452E-03
CGA:   8    -0.339604940996E+03   -0.18665E-03   -0.18514E-03 10584   0.208E-02-0.278E-03
CGA:   9    -0.339605132324E+03   -0.19133E-03   -0.19361E-03 10584   0.122E-02-0.963E-04
CGA:  10    -0.339605185134E+03   -0.52810E-04   -0.54448E-04 10584   0.676E-03 0.466E-04
CGA:  11    -0.339605288609E+03   -0.10347E-03   -0.16356E-03 10584   0.202E-02-0.397E-03
CGA:  12    -0.339605331161E+03   -0.42552E-04   -0.69084E-04 10584   0.396E-03 0.496E-03
CGA:  13    -0.339605372785E+03   -0.41623E-04   -0.41625E-04 10584   0.478E-03 0.108E-05
CGA:  14    -0.339605422730E+03   -0.49945E-04   -0.59371E-04 10584   0.601E-03-0.249E-03
CGA:  15    -0.339605431339E+03   -0.86090E-05   -0.21027E-04 10584   0.226E-03 0.235E-03
CGA:  16    -0.339605461450E+03   -0.30112E-04   -0.29530E-04 10584   0.258E-03 0.650E-04
CGA:  17    -0.339605471739E+03   -0.10288E-04   -0.53690E-04 10584   0.161E-02-0.571E-03
CGA:  18    -0.339605488047E+03   -0.16308E-04   -0.43354E-04 10584   0.305E-03 0.437E-03
CGA:  19    -0.339605498350E+03   -0.10303E-04   -0.17630E-04 10584   0.308E-03 0.180E-03
CGA:  20    -0.339605551609E+03   -0.53259E-04    0.49953E-03 10584   0.583E-03-0.124E-03
CGA:  21    -0.339605578888E+03   -0.27279E-04   -0.27698E-04 10584   0.529E-03 0.843E-04
CGA:  22    -0.339605578040E+03    0.84833E-06   -0.12863E-04 10584   0.116E-03 0.219E-03
  22 F= -.33960558E+03 E0= -.33960218E+03  d E =-.297502E-02  mag=    14.0000
       N       E                     dE             d eps       ncg     rms          ort
SDA:   1    -0.339572935679E+03    0.32643E-01    0.00000E+00 10584   0.106E+00 0.000E+00
CGA:   2    -0.339587158664E+03   -0.14223E-01   -0.13877E-01 10584   0.160E+00 0.644E-02
CGA:   3    -0.339597775465E+03   -0.10617E-01   -0.10598E-01 10584   0.382E-01-0.248E-02
CGA:   4    -0.339602724089E+03   -0.49486E-02   -0.48034E-02 10584   0.240E-01 0.300E-02
CGA:   5    -0.339604556640E+03   -0.18326E-02   -0.18046E-02 10584   0.144E-01-0.244E-02
CGA:   6    -0.339605525806E+03   -0.96917E-03   -0.97619E-03 10584   0.242E-02 0.126E-02
CGA:   7    -0.339605806289E+03   -0.28048E-03   -0.59995E-03 10584   0.105E-01-0.217E-02
CGA:   8    -0.339606020547E+03   -0.21426E-03   -0.29731E-03 10584   0.981E-03 0.155E-02
CGA:   9    -0.339606074866E+03   -0.54319E-04   -0.61157E-04 10584   0.659E-03 0.220E-03
CGA:  10    -0.339606153430E+03   -0.78564E-04   -0.12065E-03 10584   0.212E-02-0.642E-03
CGA:  11    -0.339606176784E+03   -0.23354E-04   -0.56266E-04 10584   0.331E-03 0.547E-03
CGA:  12    -0.339606186971E+03   -0.10187E-04   -0.16748E-04 10584   0.248E-03 0.149E-03
CGA:  13    -0.339606206474E+03   -0.19503E-04   -0.73337E-04 10584   0.153E-02-0.444E-03
CGA:  14    -0.339606232835E+03   -0.26361E-04   -0.49038E-04 10584   0.286E-03 0.407E-03
CGA:  15    -0.339606257163E+03   -0.24328E-04   -0.24564E-04 10584   0.288E-03 0.131E-04
CGA:  16    -0.339606257659E+03   -0.49591E-06   -0.73585E-04 10584   0.119E-02-0.458E-03
CGA:  17    -0.339606262496E+03   -0.48373E-05   -0.32539E-04 10584   0.363E-03 0.427E-03
CGA:  18    -0.339606277389E+03   -0.14893E-04   -0.24365E-04 10584   0.376E-03 0.238E-03
CGA:  19    -0.339606346903E+03   -0.69514E-04    0.27075E-03 10584   0.103E-02-0.287E-03
CGA:  20    -0.339606341106E+03    0.57966E-05   -0.19377E-04 10584   0.170E-03 0.369E-03
  23 F= -.33960634E+03 E0= -.33960300E+03  d E =-.763066E-03  mag=    14.0000
       N       E                     dE             d eps       ncg     rms          ort
SDA:   1    -0.339444403059E+03    0.16194E+00    0.00000E+00 10584   0.530E+00 0.000E+00
CGA:   2    -0.339516134071E+03   -0.71731E-01   -0.71481E-01 10584   0.955E+00 0.294E-02
CGA:   3    -0.339565584002E+03   -0.49450E-01   -0.49557E-01 10584   0.160E+00 0.172E-01
CGA:   4    -0.339591672726E+03   -0.26089E-01   -0.26494E-01 10584   0.148E+00-0.506E-02
CGA:   5    -0.339598246470E+03   -0.65737E-02   -0.66504E-02 10584   0.442E-01 0.661E-02
CGA:   6    -0.339603588606E+03   -0.53421E-02   -0.53925E-02 10584   0.169E-01-0.155E-02
CGA:   7    -0.339604827855E+03   -0.12392E-02   -0.12234E-02 10584   0.931E-02-0.167E-02
CGA:   8    -0.339605388622E+03   -0.56077E-03   -0.58378E-03 10584   0.565E-02 0.154E-02
CGA:   9    -0.339605883927E+03   -0.49530E-03   -0.48663E-03 10584   0.269E-02-0.898E-03
CGA:  10    -0.339606091857E+03   -0.20793E-03   -0.20462E-03 10584   0.110E-02 0.468E-03
CGA:  11    -0.339606229075E+03   -0.13722E-03   -0.14230E-03 10584   0.230E-02-0.199E-03
CGA:  12    -0.339606322427E+03   -0.93352E-04   -0.10404E-03 10584   0.112E-02 0.356E-03
CGA:  13    -0.339606352463E+03   -0.30036E-04   -0.41956E-04 10584   0.506E-03 0.230E-03
CGA:  14    -0.339606401138E+03   -0.48675E-04   -0.48747E-04 10584   0.836E-03 0.791E-04
CGA:  15    -0.339606465008E+03   -0.63870E-04   -0.65394E-04 10584   0.829E-03 0.114E-03
CGA:  16    -0.339606488442E+03   -0.23434E-04   -0.32984E-04 10584   0.258E-03 0.211E-03
CGA:  17    -0.339606496288E+03   -0.78461E-05   -0.11181E-04 10584   0.181E-03 0.769E-04
CGA:  18    -0.339606526977E+03   -0.30689E-04   -0.30217E-04 10584   0.652E-03 0.871E-05
CGA:  19    -0.339606546198E+03   -0.19221E-04   -0.24387E-04 10584   0.370E-03 0.120E-03
CGA:  20    -0.339606546411E+03   -0.21363E-06   -0.80465E-05 10584   0.133E-03 0.136E-03
  24 F= -.33960655E+03 E0= -.33960325E+03  d E =-.205305E-03  mag=    14.0000
       N       E                     dE             d eps       ncg     rms          ort
SDA:   1    -0.338960235619E+03    0.64631E+00    0.00000E+00 10584   0.221E+01 0.000E+00
CGA:   2    -0.339241292768E+03   -0.28106E+00   -0.27652E+00 10584   0.328E+01 0.795E-01
CGA:   3    -0.339436463876E+03   -0.19517E+00   -0.19285E+00 10584   0.716E+00-0.129E-01
CGA:   4    -0.339531445471E+03   -0.94982E-01   -0.95152E-01 10584   0.784E+00-0.427E-02
CGA:   5    -0.339570109395E+03   -0.38664E-01   -0.38455E-01 10584   0.181E+00 0.183E-01
CGA:   6    -0.339593254474E+03   -0.23145E-01   -0.23684E-01 10584   0.101E+00-0.103E-01
CGA:   7    -0.339598438492E+03   -0.51840E-02   -0.52413E-02 10584   0.278E-01 0.427E-02
CGA:   8    -0.339601663205E+03   -0.32247E-02   -0.34062E-02 10584   0.396E-01-0.444E-02
CGA:   9    -0.339603405322E+03   -0.17421E-02   -0.17890E-02 10584   0.884E-02 0.204E-02
CGA:  10    -0.339603919613E+03   -0.51429E-03   -0.53170E-03 10584   0.703E-02 0.883E-03
CGA:  11    -0.339604814793E+03   -0.89518E-03   -0.97509E-03 10584   0.107E-01-0.159E-02
CGA:  12    -0.339605062135E+03   -0.24734E-03   -0.28809E-03 10584   0.414E-02 0.941E-03
CGA:  13    -0.339605164608E+03   -0.10247E-03   -0.14500E-03 10584   0.278E-02 0.977E-03
CGA:  14    -0.339605408654E+03   -0.24405E-03   -0.24556E-03 10584   0.441E-02 0.665E-03
CGA:  15    -0.339605755635E+03   -0.34698E-03   -0.34003E-03 10584   0.240E-02-0.615E-03
CGA:  16    -0.339605808693E+03   -0.53058E-04   -0.63175E-04 10584   0.107E-02 0.241E-03
CGA:  17    -0.339605836417E+03   -0.27725E-04   -0.41887E-04 10584   0.109E-02 0.401E-03
CGA:  18    -0.339605950522E+03   -0.11410E-03   -0.11163E-03 10584   0.149E-02 0.464E-03
CGA:  19    -0.339606085364E+03   -0.13484E-03   -0.13104E-03 10584   0.562E-03-0.499E-03
CGA:  20    -0.339606084718E+03    0.64647E-06   -0.75431E-05 10584   0.323E-03 0.167E-03
  25 F= -.33960608E+03 E0= -.33960286E+03  d E =0.461693E-03  mag=    14.0000
       N       E                     dE             d eps       ncg     rms          ort
SDA:   1    -0.335909488319E+03    0.36966E+01    0.00000E+00 10584   0.141E+02 0.000E+00
CGA:   2    -0.337280549501E+03   -0.13711E+01   -0.13242E+01 10584   0.157E+02 0.143E+01
CGA:   3    -0.338597467466E+03   -0.13169E+01   -0.13611E+01 10584   0.666E+01-0.221E+01
CGA:   4    -0.339025100494E+03   -0.42763E+00   -0.42907E+00 10584   0.383E+01-0.122E+00
CGA:   5    -0.339327505230E+03   -0.30240E+00   -0.30455E+00 10584   0.238E+01-0.890E-01
CGA:   6    -0.339475722659E+03   -0.14822E+00   -0.14842E+00 10584   0.752E+00-0.399E-02
CGA:   7    -0.339530941308E+03   -0.55219E-01   -0.55250E-01 10584   0.427E+00 0.309E-02
CGA:   8    -0.339561897179E+03   -0.30956E-01   -0.31002E-01 10584   0.186E+00-0.154E-01
CGA:   9    -0.339573208856E+03   -0.11312E-01   -0.11352E-01 10584   0.884E-01 0.752E-02
CGA:  10    -0.339582496074E+03   -0.92872E-02   -0.93578E-02 10584   0.875E-01-0.268E-02
CGA:  11    -0.339587498049E+03   -0.50020E-02   -0.50212E-02 10584   0.229E-01 0.141E-02
CGA:  12    -0.339590602265E+03   -0.31042E-02   -0.29865E-02 10584   0.337E-01 0.193E-02
CGA:  13    -0.339593526426E+03   -0.29242E-02   -0.29220E-02 10584   0.149E-01 0.798E-04
CGA:  14    -0.339594884820E+03   -0.13584E-02   -0.13357E-02 10584   0.125E-01 0.124E-02
CGA:  15    -0.339596343709E+03   -0.14589E-02   -0.14191E-02 10584   0.951E-02 0.119E-02
CGA:  16    -0.339597201987E+03   -0.85828E-03   -0.86230E-03 10584   0.767E-02-0.559E-03
CGA:  17    -0.339597692167E+03   -0.49018E-03   -0.49914E-03 10584   0.230E-02 0.148E-02
CGA:  18    -0.339597425562E+03    0.26660E-03   -0.10004E-02 10584   0.467E-01-0.435E-02
CGA:  19    -0.339598453314E+03   -0.10278E-02   -0.12073E-02 10584   0.121E-02 0.441E-02
CGA:  20    -0.339598474373E+03   -0.21059E-04   -0.47555E-04 10584   0.786E-03 0.531E-03
CGA:  21    -0.339598589746E+03   -0.11537E-03   -0.10971E-03 10584   0.101E-02 0.426E-03
[...]
SDA:   1    -0.339088100372E+03    0.49762E+00    0.00000E+00 10584   0.164E+01 0.000E+00
CGA:   2    -0.339256235176E+03   -0.16813E+00   -0.16648E+00 10584   0.252E+01 0.391E-01
CGA:   3    -0.339448041769E+03   -0.19181E+00   -0.19168E+00 10584   0.685E+00-0.304E-01
CGA:   4    -0.339521204923E+03   -0.73163E-01   -0.73674E-01 10584   0.713E+00-0.192E-01
CGA:   5    -0.339555574412E+03   -0.34369E-01   -0.34534E-01 10584   0.121E+00 0.263E-01
CGA:   6    -0.339573788573E+03   -0.18214E-01   -0.18460E-01 10584   0.669E-01-0.343E-02
CGA:   7    -0.339577249641E+03   -0.34611E-02   -0.35724E-02 10584   0.224E-01 0.495E-02
CGA:   8    -0.339579594429E+03   -0.23448E-02   -0.24110E-02 10584   0.293E-01-0.310E-02
CGA:   9    -0.339580801318E+03   -0.12069E-02   -0.12737E-02 10584   0.630E-02 0.237E-02
CGA:  10    -0.339581129229E+03   -0.32791E-03   -0.35513E-03 10584   0.537E-02 0.108E-02
CGA:  11    -0.339581792506E+03   -0.66328E-03   -0.70958E-03 10584   0.638E-02-0.128E-02
CGA:  12    -0.339581929034E+03   -0.13653E-03   -0.16965E-03 10584   0.265E-02 0.768E-03
CGA:  13    -0.339581985960E+03   -0.56927E-04   -0.90892E-04 10584   0.158E-02 0.747E-03
CGA:  14    -0.339582122641E+03   -0.13668E-03   -0.13874E-03 10584   0.233E-02 0.376E-03
CGA:  15    -0.339582310603E+03   -0.18796E-03   -0.18234E-03 10584   0.116E-02-0.539E-03
CGA:  16    -0.339582321721E+03   -0.11118E-04   -0.22240E-04 10584   0.618E-03 0.232E-03
CGA:  17    -0.339582328789E+03   -0.70676E-05   -0.20097E-04 10584   0.515E-03 0.299E-03
CGA:  18    -0.339582375731E+03   -0.46942E-04   -0.48174E-04 10584   0.836E-03 0.219E-03
CGA:  19    -0.339582461689E+03   -0.85959E-04   -0.10915E-03 10584   0.590E-03-0.993E-03
CGA:  20    -0.339582456495E+03    0.51940E-05   -0.13038E-04 10584   0.309E-03 0.384E-03
CGA:  21    -0.339582468838E+03   -0.12343E-04   -0.15873E-04 10584   0.185E-03 0.224E-03
CGA:  22    -0.339582496441E+03   -0.27603E-04    0.49854E-04 10584   0.113E-03 0.130E-03
CGA:  23    -0.339582494758E+03    0.16830E-05   -0.25889E-05 10584   0.898E-04 0.981E-04
 120 F= -.33958249E+03 E0= -.33957943E+03  d E =0.322959E-02  mag=    14.0000
       N       E                     dE             d eps       ncg     rms          ort
SDA:   1    -0.339472127648E+03    0.11037E+00    0.00000E+00 10584   0.409E+00 0.000E+00
CGA:   2    -0.339500889625E+03   -0.28762E-01   -0.28640E-01 10584   0.504E+00 0.224E-01
CGA:   3    -0.339558935709E+03   -0.58046E-01   -0.58782E-01 10584   0.147E+00-0.165E-01
CGA:   4    -0.339573728181E+03   -0.14792E-01   -0.14489E-01 10584   0.102E+00 0.879E-02
CGA:   5    -0.339581138482E+03   -0.74103E-02   -0.74095E-02 10584   0.587E-01-0.130E-01
CGA:   6    -0.339583934964E+03   -0.27965E-02   -0.28633E-02 10584   0.160E-01 0.551E-02
CGA:   7    -0.339586009319E+03   -0.20744E-02   -0.20866E-02 10584   0.758E-02-0.227E-03
CGA:   8    -0.339586668751E+03   -0.65943E-03   -0.79493E-03 10584   0.117E-01-0.378E-02
CGA:   9    -0.339586780327E+03   -0.11158E-03   -0.16433E-03 10584   0.676E-02 0.120E-02
CGA:  10    -0.339586875244E+03   -0.94917E-04   -0.17324E-03 10584   0.287E-02 0.169E-02
CGA:  11    -0.339587000468E+03   -0.12522E-03   -0.13731E-03 10584   0.226E-02 0.422E-03
CGA:  12    -0.339587157105E+03   -0.15664E-03   -0.24911E-03 10584   0.883E-02-0.312E-02
CGA:  13    -0.339587340728E+03   -0.18362E-03   -0.24995E-03 10584   0.905E-03 0.178E-02
CGA:  14    -0.339587391725E+03   -0.50997E-04   -0.50501E-04 10584   0.396E-03-0.232E-04
CGA:  15    -0.339587464135E+03   -0.72409E-04    0.27951E-04 10584   0.420E-03 0.158E-03
CGA:  16    -0.339587507771E+03   -0.43636E-04   -0.43164E-04 10584   0.125E-03 0.558E-04
CGA:  17    -0.339587508882E+03   -0.11110E-05   -0.46099E-05 10584   0.870E-04 0.107E-03
 121 F= -.33958751E+03 E0= -.33958443E+03  d E =-.501412E-02  mag=    14.0000
       N       E                     dE             d eps       ncg     rms          ort
SDA:   1    -0.339566129151E+03    0.21379E-01    0.00000E+00 10584   0.664E-01 0.000E+00
CGA:   2    -0.339576506396E+03   -0.10377E-01   -0.10143E-01 10584   0.713E-01 0.262E-02
CGA:   3    -0.339582142085E+03   -0.56357E-02   -0.56858E-02 10584   0.469E-01-0.636E-02
CGA:   4    -0.339584314589E+03   -0.21725E-02   -0.22544E-02 10584   0.196E-01 0.521E-02
CGA:   5    -0.339586343238E+03   -0.20286E-02   -0.20636E-02 10584   0.103E-01-0.130E-02
CGA:   6    -0.339587092323E+03   -0.74908E-03   -0.78055E-03 10584   0.986E-02-0.255E-02
CGA:   7    -0.339587291263E+03   -0.19894E-03   -0.24987E-03 10584   0.300E-02 0.143E-02
CGA:   8    -0.339587365330E+03   -0.74067E-04   -0.10449E-03 10584   0.167E-02 0.820E-03
CGA:   9    -0.339587530503E+03   -0.16517E-03   -0.17225E-03 10584   0.224E-02-0.465E-03
CGA:  10    -0.339587612677E+03   -0.82174E-04   -0.67026E-04 10584   0.159E-02-0.603E-03
CGA:  11    -0.339587633789E+03   -0.21112E-04   -0.26904E-04 10584   0.849E-03 0.140E-03
CGA:  12    -0.339587639086E+03   -0.52968E-05   -0.17417E-04 10584   0.427E-03 0.274E-03
CGA:  13    -0.339587647202E+03   -0.81157E-05   -0.14435E-04 10584   0.403E-03 0.178E-03
CGA:  14    -0.339587689624E+03   -0.42422E-04   -0.52403E-04 10584   0.136E-02-0.308E-03
CGA:  15    -0.339587755388E+03   -0.65764E-04   -0.57862E-04 10584   0.308E-03-0.431E-03
CGA:  16    -0.339587754714E+03    0.67456E-06   -0.43583E-05 10584   0.127E-03 0.128E-03
 122 F= -.33958775E+03 E0= -.33958468E+03  d E =-.245831E-03  mag=    14.0000
       N       E                     dE             d eps       ncg     rms          ort
SDA:   1    -0.339585184171E+03    0.25712E-02    0.00000E+00 10584   0.194E-01 0.000E+00
CGA:   2    -0.339585949962E+03   -0.76579E-03   -0.78183E-03 10584   0.637E-02 0.106E-02
CGA:   3    -0.339587149181E+03   -0.11992E-02   -0.12245E-02 10584   0.870E-02-0.198E-03
CGA:   4    -0.339587739860E+03   -0.59068E-03   -0.62865E-03 10584   0.392E-02-0.292E-02
CGA:   5    -0.339587769211E+03   -0.29352E-04   -0.70152E-04 10584   0.184E-02 0.116E-02
CGA:   6    -0.339587799944E+03   -0.30733E-04   -0.64618E-04 10584   0.108E-02 0.102E-02
CGA:   7    -0.339587948774E+03   -0.14883E-03    0.18434E-03 10584   0.771E-03 0.228E-03
CGA:   8    -0.339587977334E+03   -0.28559E-04   -0.38378E-04 10584   0.265E-03 0.557E-03
CGA:   9    -0.339587974423E+03    0.29111E-05   -0.49853E-05 10584   0.167E-03 0.202E-03
 123 F= -.33958797E+03 E0= -.33958491E+03  d E =-.219709E-03  mag=    14.0000
       N       E                     dE             d eps       ncg     rms          ort
SDA:   1    -0.339522137489E+03    0.65840E-01    0.00000E+00 10584   0.203E+00 0.000E+00
CGA:   2    -0.339553667182E+03   -0.31530E-01   -0.31983E-01 10584   0.372E+00-0.444E-02
CGA:   3    -0.339572609263E+03   -0.18942E-01   -0.18911E-01 10584   0.692E-01-0.171E-02
CGA:   4    -0.339583091471E+03   -0.10482E-01   -0.11612E-01 10584   0.829E-01-0.104E-01
CGA:   5    -0.339585218479E+03   -0.21270E-02   -0.23721E-02 10584   0.192E-01 0.859E-02
CGA:   6    -0.339586417319E+03   -0.11988E-02   -0.12230E-02 10584   0.179E-01 0.426E-02
CGA:   7    -0.339587816147E+03   -0.13988E-02   -0.14028E-02 10584   0.531E-02-0.407E-02
CGA:   8    -0.339588020338E+03   -0.20419E-03   -0.21552E-03 10584   0.267E-02 0.106E-02
CGA:   9    -0.339588249988E+03   -0.22965E-03   -0.22305E-03 10584   0.167E-02 0.963E-03
CGA:  10    -0.339588352414E+03   -0.10243E-03   -0.33692E-03 10584   0.642E-02-0.274E-02
CGA:  11    -0.339588430920E+03   -0.78505E-04   -0.15802E-03 10584   0.112E-02 0.187E-02
CGA:  12    -0.339588457261E+03   -0.26342E-04   -0.46344E-04 10584   0.701E-03 0.606E-03
CGA:  13    -0.339588578600E+03   -0.12134E-03    0.61680E-04 10584   0.640E-03 0.714E-04
CGA:  14    -0.339588601280E+03   -0.22679E-04   -0.30391E-04 10584   0.175E-03 0.377E-03
CGA:  15    -0.339588596766E+03    0.45134E-05   -0.23402E-05 10584   0.120E-03 0.139E-03
 124 F= -.33958860E+03 E0= -.33958555E+03  d E =-.622344E-03  mag=    14.0000
       N       E                     dE             d eps       ncg     rms          ort
SDA:   1    -0.339582400732E+03    0.62005E-02    0.00000E+00 10584   0.258E-01 0.000E+00
CGA:   2    -0.339584955050E+03   -0.25543E-02   -0.32295E-02 10584   0.704E-01-0.101E-01
CGA:   3    -0.339586424080E+03   -0.14690E-02   -0.15845E-02 10584   0.371E-01 0.474E-02
CGA:   4    -0.339587001243E+03   -0.57716E-03   -0.80174E-03 10584   0.874E-02 0.603E-02
CGA:   5    -0.339587228122E+03   -0.22688E-03   -0.29572E-03 10584   0.681E-02 0.244E-02
CGA:   6    -0.339587773998E+03   -0.54588E-03   -0.55006E-03 10584   0.961E-02-0.655E-03
CGA:   7    -0.339588192552E+03   -0.41855E-03   -0.37549E-03 10584   0.711E-02-0.314E-02
CGA:   8    -0.339588299008E+03   -0.10646E-03   -0.10100E-03 10584   0.366E-02-0.147E-03
CGA:   9    -0.339588331543E+03   -0.32534E-04   -0.61099E-04 10584   0.185E-02 0.783E-03
CGA:  10    -0.339588346768E+03   -0.15226E-04   -0.42622E-04 10584   0.146E-02 0.818E-03
CGA:  11    -0.339588393302E+03   -0.46533E-04   -0.62120E-04 10584   0.163E-02 0.723E-03
CGA:  12    -0.339588505416E+03   -0.11211E-03   -0.11086E-03 10584   0.112E-02-0.278E-03
CGA:  13    -0.339588545350E+03   -0.39934E-04   -0.29101E-04 10584   0.413E-03-0.594E-03
CGA:  14    -0.339588551004E+03   -0.56541E-05   -0.11530E-04 10584   0.232E-03 0.281E-03
CGA:  15    -0.339588573824E+03   -0.22821E-04    0.18929E-03 10584   0.136E-03 0.180E-03
CGA:  16    -0.339588592267E+03   -0.18443E-04   -0.14070E-04 10584   0.509E-04 0.782E-04
CGA:  17    -0.339588602837E+03   -0.10570E-04    0.12212E-05 10584   0.369E-04 0.390E-04
CGA:  18    -0.339588602165E+03    0.67266E-06   -0.55274E-06 10584   0.322E-04 0.344E-04
 125 F= -.33958860E+03 E0= -.33958555E+03  d E =-.539863E-05  mag=    14.0000
       N       E                     dE             d eps       ncg     rms          ort
SDA:   1    -0.339581722388E+03    0.68804E-02    0.00000E+00 10584   0.235E-01 0.000E+00
CGA:   2    -0.339584535652E+03   -0.28133E-02   -0.25398E-02 10584   0.254E-01 0.450E-02
CGA:   3    -0.339586609666E+03   -0.20740E-02   -0.21387E-02 10584   0.144E-01-0.335E-02
CGA:   4    -0.339587273259E+03   -0.66359E-03   -0.65987E-03 10584   0.412E-02 0.353E-02
CGA:   5    -0.339587877624E+03   -0.60437E-03   -0.90028E-03 10584   0.141E-01-0.239E-02
CGA:   6    -0.339588266914E+03   -0.38929E-03   -0.41231E-03 10584   0.831E-03 0.839E-03
CGA:   7    -0.339588326469E+03   -0.59556E-04   -0.56375E-04 10584   0.503E-03 0.425E-03
CGA:   8    -0.339588403390E+03   -0.76921E-04    0.41881E-04 10584   0.377E-03 0.764E-04
CGA:   9    -0.339588453325E+03   -0.49934E-04   -0.42609E-04 10584   0.964E-04 0.178E-03
CGA:  10    -0.339588464407E+03   -0.11082E-04   -0.10248E-04 10584   0.107E-03 0.630E-04
CGA:  11    -0.339588481695E+03   -0.17289E-04    0.89752E-05 10584   0.102E-03-0.422E-05
CGA:  12    -0.339588494686E+03   -0.12991E-04    0.27234E-04 10584   0.700E-04 0.782E-04
CGA:  13    -0.339588493764E+03    0.92229E-06   -0.11598E-05 10584   0.393E-04 0.483E-04
 126 F= -.33958849E+03 E0= -.33958545E+03  d E =0.108401E-03  mag=    14.0000
       N       E                     dE             d eps       ncg     rms          ort
SDA:   1    -0.339584263287E+03    0.42314E-02    0.00000E+00 10584   0.146E-01 0.000E+00
CGA:   2    -0.339585357052E+03   -0.10938E-02   -0.10216E-02 10584   0.126E-01 0.513E-02
CGA:   3    -0.339587246792E+03   -0.18897E-02   -0.26134E-02 10584   0.253E-01-0.747E-02
CGA:   4    -0.339587728844E+03   -0.48205E-03   -0.64753E-03 10584   0.336E-02 0.464E-02
CGA:   5    -0.339587951278E+03   -0.22243E-03   -0.22619E-03 10584   0.320E-02 0.138E-02
CGA:   6    -0.339588139107E+03   -0.18783E-03   -0.63295E-03 10584   0.103E-01-0.554E-02
CGA:   7    -0.339588304837E+03   -0.16573E-03   -0.26653E-03 10584   0.196E-02 0.266E-02
CGA:   8    -0.339588403037E+03   -0.98200E-04   -0.11397E-03 10584   0.154E-02 0.101E-02
CGA:   9    -0.339588594926E+03   -0.19189E-03    0.22135E-02 10584   0.178E-02-0.592E-03
CGA:  10    -0.339588655319E+03   -0.60392E-04   -0.62050E-04 10584   0.832E-03 0.373E-03
CGA:  11    -0.339588644617E+03    0.10702E-04   -0.13640E-04 10584   0.232E-03 0.515E-03
CGA:  12    -0.339588638961E+03    0.56557E-05   -0.25050E-05 10584   0.136E-03 0.171E-03
 127 F= -.33958864E+03 E0= -.33958562E+03  d E =-.145197E-03  mag=    14.0000
       N       E                     dE             d eps       ncg     rms          ort
SDA:   1    -0.339584814446E+03    0.38302E-02    0.00000E+00 10584   0.498E-01 0.000E+00
CGA:   2    -0.339586836815E+03   -0.20224E-02   -0.18333E-02 10584   0.122E-01-0.115E-01
CGA:   3    -0.339587592997E+03   -0.75618E-03   -0.69093E-03 10584   0.343E-02 0.319E-02
CGA:   4    -0.339588232655E+03   -0.63966E-03   -0.83817E-03 10584   0.101E-01-0.141E-02
CGA:   5    -0.339588438530E+03   -0.20587E-03   -0.20429E-03 10584   0.506E-02-0.574E-04
CGA:   6    -0.339588553368E+03   -0.11484E-03   -0.12159E-03 10584   0.150E-02 0.207E-03
CGA:   7    -0.339588610492E+03   -0.57124E-04   -0.57822E-04 10584   0.114E-02 0.354E-04
CGA:   8    -0.339588669183E+03   -0.58691E-04   -0.59188E-04 10584   0.140E-02 0.830E-04
CGA:   9    -0.339588713818E+03   -0.44635E-04   -0.53321E-04 10584   0.815E-03 0.414E-03
CGA:  10    -0.339588727193E+03   -0.13375E-04   -0.23264E-04 10584   0.180E-03 0.297E-03
CGA:  11    -0.339588731647E+03   -0.44537E-05   -0.62499E-05 10584   0.961E-04 0.632E-04
CGA:  12    -0.339588723721E+03    0.79263E-05   -0.27744E-04 10584   0.136E-02-0.221E-03
CGA:  13    -0.339588754891E+03   -0.31171E-04   -0.38255E-04 10584   0.797E-04 0.219E-03
CGA:  14    -0.339588755966E+03   -0.10747E-05   -0.23543E-05 10584   0.263E-04 0.384E-04
 128 F= -.33958876E+03 E0= -.33958573E+03  d E =-.117005E-03  mag=    14.0000
       N       E                     dE             d eps       ncg     rms          ort
SDA:   1    -0.339580302224E+03    0.84527E-02    0.00000E+00 10584   0.685E-01 0.000E+00
CGA:   2    -0.339583736632E+03   -0.34344E-02   -0.34379E-02 10584   0.145E-01 0.695E-03
CGA:   3    -0.339586820868E+03   -0.30842E-02   -0.61028E-04 10584   0.317E-01-0.746E-02
CGA:   4    -0.339587570364E+03   -0.74950E-03   -0.98151E-03 10584   0.654E-02 0.320E-02
CGA:   5    -0.339588461925E+03   -0.89156E-03   -0.88464E-03 10584   0.214E-02 0.341E-03
CGA:   6    -0.339588643493E+03   -0.18157E-03   -0.13071E-03 10584   0.225E-02-0.113E-02
CGA:   7    -0.339588645282E+03   -0.17889E-05   -0.50709E-04 10584   0.339E-03 0.620E-03
CGA:   8    -0.339588641701E+03    0.35814E-05   -0.11652E-04 10584   0.252E-03 0.216E-03
CGA:   9    -0.339588707039E+03   -0.65338E-04    0.31365E-04 10584   0.405E-03 0.573E-05
CGA:  10    -0.339588710814E+03   -0.37752E-05   -0.15654E-04 10584   0.115E-03 0.211E-03
 129 F= -.33958871E+03 E0= -.33958568E+03  d E =0.451516E-04  mag=    14.0000
       N       E                     dE             d eps       ncg     rms          ort
SDA:   1    -0.339586939803E+03    0.17672E-02    0.00000E+00 10584   0.242E-01 0.000E+00
CGA:   2    -0.339587919969E+03   -0.98017E-03   -0.81482E-03 10584   0.425E-02-0.352E-02
CGA:   3    -0.339588273876E+03   -0.35391E-03   -0.34112E-03 10584   0.180E-02 0.137E-02
CGA:   4    -0.339585381254E+03    0.28926E-02   -0.15764E-02 10584   0.130E+00-0.923E-02
CGA:   5    -0.339588143640E+03   -0.27624E-02   -0.33380E-02 10584   0.357E-02 0.738E-02
CGA:   6    -0.339588349152E+03   -0.20551E-03   -0.27265E-03 10584   0.370E-02 0.893E-03
CGA:   7    -0.339588880716E+03   -0.53156E-03   -0.48045E-03 10584   0.245E-02-0.126E-02
CGA:   8    -0.339588874833E+03    0.58828E-05   -0.38906E-04 10584   0.767E-03 0.383E-03
CGA:   9    -0.339588857672E+03    0.17161E-04   -0.17435E-04 10584   0.364E-03 0.298E-03
CGA:  10    -0.339588854777E+03    0.28950E-05   -0.16837E-04 10584   0.420E-03 0.202E-03
CGA:  11    -0.339588973778E+03   -0.11900E-03    0.21468E-03 10584   0.286E-02-0.682E-03
CGA:  12    -0.339588956949E+03    0.16829E-04   -0.58675E-04 10584   0.215E-03 0.721E-03
CGA:  13    -0.339588945119E+03    0.11831E-04   -0.33242E-05 10584   0.738E-04 0.140E-03
CGA:  14    -0.339588940750E+03    0.43690E-05   -0.11495E-05 10584   0.453E-04 0.552E-04
 130 F= -.33958894E+03 E0= -.33958592E+03  d E =-.229936E-03  mag=    14.0000
       N       E                     dE             d eps       ncg     rms          ort
SDA:   1    -0.339584514134E+03    0.44310E-02    0.00000E+00 10584   0.137E-01 0.000E+00
CGA:   2    -0.339585598843E+03   -0.10847E-02   -0.11398E-02 10584   0.157E-01 0.243E-02
CGA:   3    -0.339587753792E+03   -0.21549E-02   -0.22018E-02 10584   0.177E-01-0.337E-02
CGA:   4    -0.339588167957E+03   -0.41417E-03   -0.51830E-03 10584   0.345E-02 0.165E-02
CGA:   5    -0.339588265593E+03   -0.97636E-04   -0.15229E-03 10584   0.277E-02 0.894E-03
CGA:   6    -0.339588640329E+03   -0.37474E-03   -0.38122E-03 10584   0.154E-02-0.653E-03
CGA:   7    -0.339588750171E+03   -0.10984E-03   -0.78670E-04 10584   0.160E-02-0.950E-03
CGA:   8    -0.339588751659E+03   -0.14877E-05   -0.41753E-04 10584   0.428E-03 0.561E-03
CGA:   9    -0.339588764318E+03   -0.12660E-04   -0.25251E-04 10584   0.365E-03 0.248E-03
CGA:  10    -0.339588853876E+03   -0.89558E-04    0.49858E-04 10584   0.119E-02-0.342E-03
CGA:  11    -0.339588840584E+03    0.13293E-04   -0.20356E-04 10584   0.193E-03 0.450E-03
CGA:  12    -0.339588832068E+03    0.85160E-05   -0.28491E-05 10584   0.762E-04 0.146E-03
 131 F= -.33958883E+03 E0= -.33958583E+03  d E =0.108682E-03  mag=    14.0000
       N       E                     dE             d eps       ncg     rms          ort
SDA:   1    -0.339586074592E+03    0.27660E-02    0.00000E+00 10584   0.915E-02 0.000E+00
CGA:   2    -0.339587013017E+03   -0.93843E-03   -0.11231E-02 10584   0.309E-01-0.445E-02
CGA:   3    -0.339587604807E+03   -0.59179E-03   -0.62648E-03 10584   0.278E-01 0.808E-03
CGA:   4    -0.339588049275E+03   -0.44447E-03   -0.61932E-03 10584   0.655E-02 0.320E-02
CGA:   5    -0.339588201782E+03   -0.15251E-03   -0.20645E-03 10584   0.388E-02 0.116E-02
CGA:   6    -0.339588458109E+03   -0.25633E-03   -0.23636E-03 10584   0.379E-02-0.854E-03
CGA:   7    -0.339588661070E+03   -0.20296E-03   -0.17607E-03 10584   0.501E-02-0.184E-02
CGA:   8    -0.339588696799E+03   -0.35729E-04   -0.42587E-04 10584   0.307E-02 0.126E-03
CGA:   9    -0.339588702953E+03   -0.61534E-05   -0.42468E-04 10584   0.112E-02 0.646E-03
CGA:  10    -0.339588695507E+03    0.74451E-05   -0.18219E-04 10584   0.685E-03 0.473E-03
CGA:  11    -0.339588696125E+03   -0.61739E-06   -0.19161E-04 10584   0.756E-03 0.408E-03
CGA:  12    -0.339588811408E+03   -0.11528E-03    0.11016E-03 10584   0.684E-03-0.730E-04
CGA:  13    -0.339588824628E+03   -0.13219E-04   -0.22262E-04 10584   0.257E-03 0.338E-03
CGA:  14    -0.339588818522E+03    0.61060E-05   -0.54086E-05 10584   0.103E-03 0.243E-03
 132 F= -.33958882E+03 E0= -.33958582E+03  d E =0.135459E-04  mag=    14.0000
       N       E                     dE             d eps       ncg     rms          ort
SDA:   1    -0.339586783505E+03    0.20411E-02    0.00000E+00 10584   0.164E-01 0.000E+00
CGA:   2    -0.339587722367E+03   -0.93886E-03   -0.94041E-03 10584   0.966E-02-0.493E-02
CGA:   3    -0.339588031784E+03   -0.30942E-03   -0.32872E-03 10584   0.495E-02 0.232E-02
CGA:   4    -0.339588330992E+03   -0.29921E-03   -0.30791E-03 10584   0.254E-02 0.137E-02
CGA:   5    -0.339588019564E+03    0.31143E-03   -0.59031E-03 10584   0.377E-01-0.714E-02
CGA:   6    -0.339588796471E+03   -0.77691E-03   -0.94871E-03 10584   0.191E-02 0.521E-02
CGA:   7    -0.339588847025E+03   -0.50554E-04   -0.64332E-04 10584   0.351E-03 0.452E-03
CGA:   8    -0.339588899950E+03   -0.52925E-04    0.38987E-03 10584   0.386E-03-0.132E-03
CGA:   9    -0.339588920623E+03   -0.20673E-04   -0.24350E-04 10584   0.581E-03-0.874E-04
CGA:  10    -0.339588917972E+03    0.26513E-05   -0.66261E-05 10584   0.288E-03 0.200E-03
 133 F= -.33958892E+03 E0= -.33958592E+03  d E =-.994501E-04  mag=    14.0000
