       N       E                     dE             d eps       ncg     rms          ort
DAV:   1     0.280230961244E+04    0.28023E+04   -0.14463E+05  6048   0.158E+03
DAV:   2    -0.282706290069E+02   -0.28306E+04   -0.27445E+04  6048   0.436E+02
DAV:   3    -0.310345644127E+03   -0.28208E+03   -0.27620E+03  6048   0.149E+02
DAV:   4    -0.325147493409E+03   -0.14802E+02   -0.14333E+02  6048   0.361E+01
DAV:   5    -0.326267335960E+03   -0.11198E+01   -0.11024E+01  6048   0.654E+00
SDA:   6    -0.159218212411E+03    0.16705E+03   -0.11024E+01  6048   0.139E+04 0.000E+00
CGA:   7    -0.253812820965E+03   -0.94595E+02   -0.15254E+03  6048   0.160E+03-0.121E+02
CGA:   8    -0.263297168332E+03   -0.94843E+01   -0.38880E+01  6048   0.389E+03 0.528E+03
CGA:   9    -0.269804170002E+03   -0.65070E+01   -0.16915E+02  6048   0.676E+02 0.605E+01
CGA:  10    -0.278146620551E+03   -0.83425E+01   -0.30537E+01  6048   0.773E+02-0.126E+03
CGA:  11    -0.276872286879E+03    0.12743E+01   -0.63701E+01  6048   0.606E+02 0.115E+01
CGA:  12    -0.273279759002E+03    0.35925E+01   -0.36734E+01  6048   0.151E+03 0.357E+01
CGA:  13    -0.272520472197E+03    0.75929E+00   -0.32451E+01  6048   0.297E+03-0.746E+02
CGA:  14    -0.283710513906E+03   -0.11190E+02   -0.16989E+01  6048   0.815E+02 0.139E+03
CGA:  15    -0.280884936225E+03    0.28256E+01   -0.64132E+01  6048   0.129E+03-0.550E+02
CGA:  16    -0.282330060167E+03   -0.14451E+01   -0.69957E+01  6048   0.159E+03-0.566E+02
CGA:  17    -0.271180231940E+03    0.11150E+02   -0.40078E+01  6048   0.397E+03-0.139E+03
CGA:  18    -0.286450275222E+03   -0.15270E+02   -0.70440E+01  6048   0.331E+02 0.141E+03
CGA:  19    -0.284399949189E+03    0.20503E+01   -0.17729E+01  6048   0.157E+03-0.595E+02
CGA:  20    -0.280186359580E+03    0.42136E+01   -0.79979E+01  6048   0.910E+02-0.511E+02
CGA:  21    -0.285281876440E+03   -0.50955E+01   -0.20680E+01  6048   0.209E+03-0.309E+03
CGA:  22    -0.280915227765E+03    0.43666E+01   -0.10297E+02  6048   0.116E+03-0.495E+02
CGA:  23    -0.283106477123E+03   -0.21912E+01   -0.31141E+01  6048   0.281E+03-0.325E+03
CGA:  24    -0.278989852387E+03    0.41166E+01   -0.13309E+02  6048   0.817E+02-0.471E+02
CGA:  25    -0.285779522472E+03   -0.67897E+01   -0.20861E+01  6048   0.209E+03-0.111E+03
CGA:  26    -0.285101369019E+03    0.67815E+00   -0.88444E+01  6048   0.101E+03-0.476E+02
CGA:  27    -0.285513671683E+03   -0.41230E+00   -0.19607E+01  6048   0.144E+03-0.631E+02
CGA:  28    -0.283153855166E+03    0.23598E+01   -0.41221E+01  6048   0.180E+03-0.124E+03
CGA:  29    -0.276918035685E+03    0.62358E+01   -0.58163E+01  6048   0.538E+03-0.273E+03
CGA:  30    -0.279829234613E+03   -0.29112E+01   -0.23816E+02  6048   0.146E+03-0.272E+02
CGA:  31    -0.267396021157E+03    0.12433E+02   -0.56688E+01  6048   0.315E+03-0.511E+02
CGA:  32    -0.273569967211E+03   -0.61739E+01   -0.77319E+01  6048   0.304E+03-0.989E+02
CGA:  33    -0.283998047337E+03   -0.10428E+02   -0.11441E+02  6048   0.444E+02-0.104E+03
CGA:  34    -0.284609226909E+03   -0.61118E+00   -0.30875E+00  6048   0.369E+02 0.303E+02
CGA:  35    -0.285670672644E+03   -0.10614E+01   -0.41053E+00  6048   0.484E+02 0.623E+02
CGA:  36    -0.286796549514E+03   -0.11259E+01   -0.64274E+00  6048   0.131E+02 0.257E+02
CGA:  37    -0.287116032957E+03   -0.31948E+00   -0.21713E+00  6048   0.516E+01 0.661E+01
CGA:  38    -0.287425005669E+03   -0.30897E+00   -0.19251E+00  6048   0.132E+01 0.253E+01
CGA:  39    -0.287473442509E+03   -0.48437E-01   -0.31800E-01  6048   0.870E+00 0.887E+00
CGA:  40    -0.287570541509E+03   -0.97099E-01   -0.96410E-01  6048   0.382E+01 0.131E-01
CGA:  41    -0.287743239192E+03   -0.17270E+00   -0.13442E+00  6048   0.192E+01 0.898E+00
CGA:  42    -0.287813189124E+03   -0.69950E-01   -0.59414E-01  6048   0.771E+00 0.232E+00
CGA:  43    -0.287830820149E+03   -0.17631E-01   -0.16720E-01  6048   0.585E+00 0.368E-01
CGA:  44    -0.287860069527E+03   -0.29249E-01   -0.27119E-01  6048   0.132E+01-0.952E-02
CGA:  45    -0.287886578593E+03   -0.26509E-01   -0.17468E-01  6048   0.156E+01 0.648E+00
CGA:  46    -0.287935442894E+03   -0.48864E-01   -0.33063E-01  6048   0.916E+00 0.105E+01
CGA:  47    -0.287950205236E+03   -0.14762E-01   -0.16019E-01  6048   0.181E+00-0.558E-01
CGA:  48    -0.287973923004E+03   -0.23718E-01   -0.23461E-01  6048   0.109E+01 0.459E-02
CGA:  49    -0.288019829058E+03   -0.45906E-01   -0.45565E-01  6048   0.336E+00 0.324E-01
CGA:  50    -0.288028705694E+03   -0.88766E-02   -0.96017E-02  6048   0.123E+00-0.143E-01
CGA:  51    -0.288038354988E+03   -0.96493E-02   -0.10104E-01  6048   0.332E+00-0.132E-01
CGA:  52    -0.288055889009E+03   -0.17534E-01   -0.17561E-01  6048   0.308E+00-0.705E-02
CGA:  53    -0.288063716869E+03   -0.78279E-02   -0.89859E-02  6048   0.582E-01-0.155E-01
CGA:  54    -0.288065521251E+03   -0.18044E-02   -0.18030E-02  6048   0.380E-01-0.654E-04
CGA:  55    -0.288068886695E+03   -0.33654E-02   -0.32992E-02  6048   0.898E-01 0.171E-02
CGA:  56    -0.288073472833E+03   -0.45861E-02   -0.46087E-02  6048   0.298E-01 0.105E-02
CGA:  57    -0.288074667550E+03   -0.11947E-02   -0.11996E-02  6048   0.175E-01-0.162E-04
CGA:  58    -0.288076501963E+03   -0.18344E-02   -0.18328E-02  6048   0.523E-01 0.602E-05
CGA:  59    -0.288079677819E+03   -0.31759E-02   -0.31632E-02  6048   0.293E-01 0.230E-02
CGA:  60    -0.288080792115E+03   -0.11143E-02   -0.11260E-02  6048   0.111E-01-0.730E-04
CGA:  61    -0.288081939393E+03   -0.11473E-02   -0.11594E-02  6048   0.298E-01-0.247E-03
CGA:  62    -0.288084062164E+03   -0.21228E-02   -0.21112E-02  6048   0.172E-01 0.504E-03
CGA:  63    -0.288084596894E+03   -0.53473E-03   -0.53141E-03  6048   0.467E-02 0.178E-04
CGA:  64    -0.288085241311E+03   -0.64442E-03   -0.64942E-03  6048   0.178E-01-0.702E-04
CGA:  65    -0.288086566158E+03   -0.13248E-02   -0.13273E-02  6048   0.425E-02-0.156E-03
CGA:  66    -0.288086720623E+03   -0.15446E-03   -0.15377E-03  6048   0.365E-02 0.226E-05
CGA:  67    -0.288087503582E+03   -0.78296E-03   -0.84844E-03  6048   0.128E-01-0.499E-03
CGA:  68    -0.288087807254E+03   -0.30367E-03   -0.30439E-03  6048   0.203E-02-0.164E-04
CGA:  69    -0.288087885423E+03   -0.78169E-04   -0.78555E-04  6048   0.278E-02-0.274E-06
CGA:  70    -0.288088263106E+03   -0.37768E-03   -0.38308E-03  6048   0.588E-02-0.876E-04
CGA:  71    -0.288088383201E+03   -0.12010E-03   -0.11524E-03  6048   0.136E-02 0.212E-03
CGA:  72    -0.288088438968E+03   -0.55767E-04   -0.55334E-04  6048   0.234E-02 0.459E-05
CGA:  73    -0.288088638708E+03   -0.19974E-03   -0.20519E-03  6048   0.821E-02-0.196E-03
CGA:  74    -0.288088803657E+03   -0.16495E-03   -0.14265E-03  6048   0.490E-02 0.106E-02
CGA:  75    -0.288088883753E+03   -0.80096E-04   -0.73834E-04  6048   0.135E-02 0.441E-03
CGA:  76    -0.288088913651E+03   -0.29898E-04   -0.29705E-04  6048   0.137E-02 0.126E-04
SDA:  77    -0.288088981015E+03   -0.67364E-04   -0.66770E-04  6048   0.489E-02-0.515E-05
CGA:  78    -0.288089109663E+03   -0.12865E-03   -0.12905E-03  6048   0.105E-02-0.707E-05
CGA:  79    -0.288089430553E+03   -0.32089E-03   -0.22710E-05  6048   0.147E-01-0.209E-03
CGA:  80    -0.288089721894E+03   -0.29134E-03   -0.20148E-03  6048   0.790E-02 0.513E-02
CGA:  81    -0.288089886482E+03   -0.16459E-03   -0.15208E-03  6048   0.127E-02 0.850E-03
CGA:  82    -0.288089994236E+03   -0.10775E-03   -0.10728E-03  6048   0.533E-02-0.852E-05
CGA:  83    -0.288090187868E+03   -0.19363E-03   -0.15144E-03  6048   0.389E-02 0.126E-02
CGA:  84    -0.288090256083E+03   -0.68215E-04   -0.59570E-04  6048   0.419E-03 0.638E-03
CGA:  85    -0.288090264531E+03   -0.84479E-05   -0.84177E-05  6048   0.233E-03 0.161E-05
CGA:  86    -0.288090279694E+03   -0.15164E-04   -0.15171E-04  6048   0.866E-03 0.131E-05
CGA:  87    -0.288090309726E+03   -0.30031E-04   -0.29711E-04  6048   0.650E-03 0.136E-04
CGA:  88    -0.288090320064E+03   -0.10338E-04   -0.10401E-04  6048   0.132E-03 0.319E-05
CGA:  89    -0.288090322223E+03   -0.21596E-05   -0.21941E-05  6048   0.538E-04 0.150E-06
   1 F= -.28809032E+03 E0= -.28807585E+03  d E =-.288090E+03  mag=    10.0000
